# OOMMF OVF 2.0
#
# Segment count: 1
#
# Begin: Segment
# Begin: Header
#
# Title: Oxs_MinDriver::Magnetization
# Desc: Oxs vector field output
# Desc:  MIF source file: F:/Bogdan/UNIC/2022/Master_degree/Simulation_samples/Cylinder0_5000 1.mif
# Desc:  Iteration: 1569, State id: 3392
# Desc:  Stage: 4, Stage iteration: 72
# Desc:  Stage simulation time: 0 s
# Desc:  Total simulation time: -2 s
# meshunit: m
# meshtype: rectangular
# xbase: -8.9999999999999995e-09
# ybase: -8.9999999999999995e-09
# zbase: -8.6999999999999998e-08
# xnodes: 10
# ynodes: 10
# znodes: 88
# xstepsize: 2.0000000000000001e-09
# ystepsize: 2.0000000000000001e-09
# zstepsize: 2.0000000000000001e-09
# xmin: -1e-08
# ymin: -1e-08
# zmin: -8.7999999999999994e-08
# xmax: 1e-08
# ymax: 1e-08
# zmax: 8.800000000000002e-08
# valuedim: 3
# valuelabels: Magnetization_x Magnetization_y Magnetization_z
# valueunits: A/m A/m A/m
#
# End: Header
#
# Begin: Data Text
 0 0 0
 0 0 0
 0 0 0
 8425.011474 31811.54767 476328.5798
 3174.161982 32033.69651 476377.6215
 -3174.161982 32033.69651 476377.6215
 -8425.011474 31811.54767 476328.5798
 0 0 -0
 0 0 -0
 0 0 -0
 0 0 0
 23625.65872 23625.65872 476293.5311
 18786.95022 24631.45069 476457.9871
 11118.6429 26750.75352 476584.3517
 3758.867423 27328.23012 476666.4558
 -3758.867423 27328.23013 476666.4558
 -11118.6429 26750.75352 476584.3517
 -18786.95022 24631.4507 476457.9871
 -23625.65872 23625.65872 476293.5311
 0 0 -0
 0 0 0
 24631.4507 18786.95022 476457.9871
 19397.2129 19397.21291 476675.3272
 12029.68364 20233.29292 476883.3944
 4069.1789 20604.28794 477001.862
 -4069.1789 20604.28793 477001.862
 -12029.68364 20233.29292 476883.3944
 -19397.2129 19397.21291 476675.3272
 -24631.45069 18786.95022 476457.9871
 0 0 -0
 31811.54767 8425.011475 476328.5798
 26750.75351 11118.64291 476584.3517
 20233.29293 12029.68363 476883.3944
 12527.11149 12527.11152 477135.2159
 4235.575055 12747.68915 477275.0021
 -4235.575055 12747.68916 477275.0021
 -12527.11149 12527.11151 477135.2159
 -20233.29293 12029.68363 476883.3944
 -26750.75351 11118.6429 476584.3517
 -31811.54767 8425.011476 476328.5798
 32033.69651 3174.161987 476377.6215
 27328.23013 3758.867417 476666.4558
 20604.28792 4069.178917 477001.862
 12747.68917 4235.575034 477275.0021
 4309.263523 4309.263555 477425.106
 -4309.263523 4309.263542 477425.106
 -12747.68917 4235.575046 477275.0021
 -20604.28792 4069.178909 477001.862
 -27328.23013 3758.867422 476666.4558
 -32033.69651 3174.161985 476377.6215
 32033.69651 -3174.161982 476377.6215
 27328.23011 -3758.867412 476666.4558
 20604.28795 -4069.178913 477001.862
 12747.68913 -4235.57503 477275.0021
 4309.263573 -4309.26355 477425.1059
 -4309.263573 -4309.263537 477425.1059
 -12747.68913 -4235.575041 477275.0021
 -20604.28795 -4069.178904 477001.862
 -27328.23011 -3758.867418 476666.4558
 -32033.69651 -3174.161981 476377.6215
 31811.54767 -8425.01147 476328.5798
 26750.75353 -11118.6429 476584.3517
 20233.2929 -12029.68362 476883.3944
 12527.11153 -12527.11151 477135.2159
 4235.575011 -12747.68915 477275.0021
 -4235.575011 -12747.68916 477275.0021
 -12527.11153 -12527.1115 477135.2159
 -20233.2929 -12029.68363 476883.3944
 -26750.75353 -11118.6429 476584.3517
 -31811.54767 -8425.011471 476328.5798
 0 0 0
 24631.45069 -18786.95022 476457.9871
 19397.21292 -19397.21291 476675.3272
 12029.68361 -20233.29291 476883.3944
 4069.178933 -20604.28793 477001.862
 -4069.178933 -20604.28793 477001.862
 -12029.68361 -20233.29292 476883.3944
 -19397.21292 -19397.2129 476675.3272
 -24631.45069 -18786.95022 476457.9871
 0 0 -0
 0 0 0
 23625.65872 -23625.65872 476293.5311
 18786.95021 -24631.45069 476457.9871
 11118.64291 -26750.75352 476584.3517
 3758.867403 -27328.23012 476666.4558
 -3758.867403 -27328.23012 476666.4558
 -11118.64291 -26750.75351 476584.3517
 -18786.95021 -24631.45069 476457.9871
 -23625.65872 -23625.65872 476293.5311
 0 0 -0
 0 0 0
 0 0 0
 0 0 0
 8425.01147 -31811.54767 476328.5798
 3174.161988 -32033.69651 476377.6215
 -3174.161988 -32033.69651 476377.6215
 -8425.01147 -31811.54767 476328.5798
 0 0 -0
 0 0 -0
 0 0 -0
 0 0 0
 0 0 0
 0 0 0
 7072.704254 27554.54449 476615.7732
 2723.716208 27760.08365 476648.5397
 -2723.716208 27760.08366 476648.5397
 -7072.704254 27554.54449 476615.7732
 0 0 -0
 0 0 -0
 0 0 -0
 0 0 0
 20428.20459 20428.20459 476589.1818
 16458.12978 21376.10279 476701.2308
 9716.567971 23513.08885 476785.6901
 3304.92681 24169.12968 476840.4365
 -3304.92681 24169.12966 476840.4365
 -9716.567971 23513.08886 476785.6901
 -16458.12978 21376.10278 476701.2308
 -20428.20459 20428.20459 476589.1818
 0 0 -0
 0 0 0
 21376.10277 16458.12979 476701.2308
 17153.70409 17153.70407 476847.3258
 10728.48926 18064.80146 477001.5029
 3644.618854 18490.98137 477091.8902
 -3644.618854 18490.98139 477091.8902
 -10728.48926 18064.80144 477001.5029
 -17153.70409 17153.70408 476847.3258
 -21376.10277 16458.12978 476701.2308
 0 0 -0
 27554.54449 7072.70426 476615.7732
 23513.08888 9716.567955 476785.6901
 18064.80141 10728.4893 477001.5029
 11286.08088 11286.08082 477197.1501
 3831.395865 11537.0379 477309.2168
 -3831.395865 11537.03787 477309.2168
 -11286.08087 11286.08085 477197.1501
 -18064.80141 10728.48928 477001.5029
 -23513.08888 9716.567966 476785.6901
 -27554.54449 7072.704257 476615.7732
 27760.08366 2723.716204 476648.5397
 24169.12964 3304.926835 476840.4365
 18490.98142 3644.618814 477091.8902
 11537.03782 3831.39593 477309.2168
 3914.801502 3914.801423 477431.9009
 -3914.801501 3914.801457 477431.9009
 -11537.03783 3831.395899 477309.2168
 -18490.98142 3644.618837 477091.8902
 -24169.12964 3304.926821 476840.4365
 -27760.08366 2723.716208 476648.5397
 27760.08364 -2723.7162 476648.5397
 24169.1297 -3304.92683 476840.4365
 18490.98133 -3644.61881 477091.8902
 11537.03795 -3831.395926 477309.2168
 3914.801363 -3914.801418 477431.9009
 -3914.801363 -3914.801453 477431.9009
 -11537.03795 -3831.395895 477309.2168
 -18490.98133 -3644.618833 477091.8902
 -24169.1297 -3304.926816 476840.4365
 -27760.08364 -2723.716204 476648.5397
 27554.5445 -7072.704256 476615.7732
 23513.08883 -9716.567951 476785.6901
 18064.80149 -10728.48929 477001.5029
 11286.08077 -11286.08082 477197.1501
 3831.395988 -11537.0379 477309.2168
 -3831.395988 -11537.03786 477309.2168
 -11286.08077 -11286.08084 477197.1501
 -18064.80149 -10728.48927 477001.5029
 -23513.08883 -9716.567962 476785.6901
 -27554.5445 -7072.704253 476615.7732
 0 0 0
 21376.1028 -16458.12979 476701.2308
 17153.70403 -17153.70406 476847.3259
 10728.48934 -18064.80145 477001.5029
 3644.61876 -18490.98136 477091.8902
 -3644.61876 -18490.98139 477091.8902
 -10728.48934 -18064.80143 477001.5029
 -17153.70403 -17153.70408 476847.3259
 -21376.1028 -16458.12978 476701.2308
 0 0 -0
 0 0 0
 20428.20458 -20428.20458 476589.1818
 16458.1298 -21376.10278 476701.2308
 9716.567926 -23513.08885 476785.6901
 3304.926867 -24169.12967 476840.4365
 -3304.926867 -24169.12966 476840.4365
 -9716.567926 -23513.08886 476785.6901
 -16458.1298 -21376.10278 476701.2308
 -20428.20458 -20428.20459 476589.1818
 0 0 -0
 0 0 0
 0 0 0
 0 0 0
 7072.704265 -27554.54449 476615.7732
 2723.71619 -27760.08365 476648.5397
 -2723.71619 -27760.08365 476648.5397
 -7072.704265 -27554.54449 476615.7732
 0 0 -0
 0 0 -0
 0 0 -0
 0 0 0
 0 0 0
 0 0 0
 5662.103365 22472.53358 476901.2446
 2193.701074 22646.30315 476921.591
 -2193.701074 22646.30314 476921.591
 -5662.103365 22472.53359 476901.2446
 0 0 -0
 0 0 -0
 0 0 -0
 0 0 0
 16654.61294 16654.61294 476882.7099
 13487.18694 17461.46097 476953.9438
 7950.391431 19316.14618 477006.8648
 2709.742788 19927.65975 477040.2677
 -2709.742787 19927.65977 477040.2677
 -7950.391432 19316.14616 477006.8648
 -13487.18694 17461.46098 476953.9438
 -16654.61294 16654.61294 476882.7099
 0 0 -0
 0 0 0
 17461.46099 13487.18693 476953.9438
 14144.41349 14144.41353 477044.8013
 8902.901859 15007.02967 477145.05
 3035.171758 15430.06979 477204.958
 -3035.171758 15430.06975 477204.958
 -8902.901858 15007.02969 477145.05
 -14144.4135 14144.41351 477044.8013
 -17461.46098 13487.18693 476953.9438
 0 0 -0
 22472.53359 5662.103361 476901.2446
 19316.14614 7950.391459 477006.8648
 15007.02973 8902.90181 477145.05
 9454.2883 9454.28838 477276.7585
 3223.098058 9710.804358 477354.3581
 -3223.098057 9710.8044 477354.3581
 -9454.288301 9454.288344 477276.7585
 -15007.02972 8902.901836 477145.05
 -19316.14614 7950.391444 477006.8648
 -22472.53359 5662.103364 476901.2446
 22646.30313 2193.701085 476921.591
 19927.6598 2709.742758 477040.2677
 15430.06971 3035.171818 477204.958
 9710.804459 3223.097971 477354.3581
 3309.375225 3309.375342 477441.0617
 -3309.375226 3309.375296 477441.0617
 -9710.804458 3223.098012 477354.3581
 -15430.06971 3035.171787 477204.958
 -19927.6598 2709.742777 477040.2677
 -22646.30313 2193.701079 476921.591
 22646.30316 -2193.701082 476921.591
 19927.65971 -2709.742755 477040.2677
 15430.06984 -3035.171814 477204.958
 9710.804282 -3223.097968 477354.3581
 3309.375425 -3309.375338 477441.0617
 -3309.375425 -3309.375292 477441.0617
 -9710.804282 -3223.098009 477354.3581
 -15430.06984 -3035.171783 477204.958
 -19927.65971 -2709.742773 477040.2677
 -22646.30316 -2193.701076 476921.591
 22472.53357 -5662.103357 476901.2446
 19316.1462 -7950.391455 477006.8648
 15007.02961 -8902.901806 477145.05
 9454.288455 -9454.288376 477276.7585
 3223.097881 -9710.804355 477354.3581
 -3223.097881 -9710.804396 477354.3581
 -9454.288455 -9454.288341 477276.7585
 -15007.02961 -8902.901833 477145.05
 -19316.1462 -7950.39144 477006.8648
 -22472.53357 -5662.103361 476901.2446
 0 0 0
 17461.46095 -13487.18692 476953.9438
 14144.41357 -14144.41353 477044.8013
 8902.901743 -15007.02966 477145.05
 3035.171893 -15430.06978 477204.958
 -3035.171893 -15430.06975 477204.958
 -8902.901743 -15007.02969 477145.05
 -14144.41357 -14144.41351 477044.8013
 -17461.46095 -13487.18693 476953.9438
 0 0 -0
 0 0 0
 16654.61295 -16654.61294 476882.7099
 13487.18691 -17461.46097 476953.9438
 7950.391497 -19316.14617 477006.8648
 2709.742706 -19927.65975 477040.2677
 -2709.742706 -19927.65976 477040.2677
 -7950.391497 -19316.14616 477006.8648
 -13487.18691 -17461.46098 476953.9438
 -16654.61295 -16654.61294 476882.7099
 0 0 -0
 0 0 0
 0 0 0
 0 0 0
 5662.103349 -22472.53358 476901.2446
 2193.7011 -22646.30314 476921.591
 -2193.7011 -22646.30314 476921.591
 -5662.103349 -22472.53358 476901.2446
 0 0 -0
 0 0 -0
 0 0 -0
 0 0 0
 0 0 0
 0 0 0
 4421.343062 17735.19451 477114.0177
 1715.212742 17871.42271 477126.3371
 -1715.212742 17871.42271 477126.3371
 -4421.343062 17735.19451 477114.0177
 0 0 -0
 0 0 -0
 0 0 -0
 0 0 0
 13145.45092 13145.45092 477101.9446
 10659.39383 13786.46429 477145.8708
 6274.393224 15283.03831 477178.0926
 2139.070641 15791.53133 477197.9916
 -2139.070641 15791.53131 477197.9916
 -6274.393223 15283.03832 477178.0926
 -10659.39383 13786.46428 477145.8708
 -13145.45092 13145.45092 477101.9446
 0 0 -0
 0 0 0
 13786.46427 10659.39384 477145.8708
 11208.85909 11208.85906 477200.7903
 7077.251631 11939.16721 477262.2341
 2417.413523 12307.33845 477299.232
 -2417.413523 12307.33848 477299.232
 -7077.251632 11939.16719 477262.2341
 -11208.85909 11208.85908 477200.7903
 -13786.46428 10659.39384 477145.8708
 0 0 -0
 17735.1945 4421.343069 477114.0177
 15283.03834 6274.393199 477178.0926
 11939.16715 7077.251686 477262.2341
 7559.151757 7559.151675 477344.3094
 2584.24061 7789.302769 477393.4643
 -2584.240611 7789.302726 477393.4643
 -7559.151756 7559.151713 477344.3094
 -11939.16715 7077.251658 477262.2341
 -15283.03834 6274.393214 477178.0926
 -17735.1945 4421.343065 477114.0177
 17871.42272 1715.212734 477126.3371
 15791.53128 2139.070675 477197.9916
 12307.33853 2417.413464 477299.232
 7789.302657 2584.240705 477393.4643
 2662.787525 2662.787403 477449.1496
 -2662.787525 2662.787451 477449.1496
 -7789.302658 2584.240663 477393.4643
 -12307.33853 2417.413496 477299.232
 -15791.53128 2139.070655 477197.9916
 -17871.42272 1715.21274 477126.3371
 17871.42269 -1715.212731 477126.3371
 15791.53137 -2139.070671 477197.9916
 12307.33838 -2417.413461 477299.232
 7789.302851 -2584.240702 477393.4643
 2662.787307 -2662.7874 477449.1496
 -2662.787307 -2662.787447 477449.1496
 -7789.302851 -2584.24066 477393.4643
 -12307.33838 -2417.413493 477299.232
 -15791.53137 -2139.070652 477197.9916
 -17871.42269 -1715.212737 477126.3371
 17735.19452 -4421.343066 477114.0177
 15283.03827 -6274.393196 477178.0926
 11939.16728 -7077.251682 477262.2341
 7559.151587 -7559.151674 477344.3094
 2584.240804 -7789.302765 477393.4643
 -2584.240804 -7789.302724 477393.4643
 -7559.151587 -7559.151709 477344.3094
 -11939.16728 -7077.251656 477262.2341
 -15283.03827 -6274.393211 477178.0926
 -17735.19452 -4421.343062 477114.0177
 0 0 0
 13786.46431 -10659.39384 477145.8708
 11208.85901 -11208.85906 477200.7903
 7077.251759 -11939.16721 477262.2341
 2417.413375 -12307.33844 477299.232
 -2417.413374 -12307.33848 477299.232
 -7077.251759 -11939.16718 477262.2341
 -11208.85901 -11208.85907 477200.7903
 -13786.46431 -10659.39383 477145.8708
 0 0 -0
 0 0 0
 13145.45091 -13145.45092 477101.9446
 10659.39386 -13786.46429 477145.8708
 6274.393151 -15283.03831 477178.0926
 2139.070732 -15791.53133 477197.9916
 -2139.070732 -15791.53131 477197.9916
 -6274.393151 -15283.03832 477178.0926
 -10659.39386 -13786.46428 477145.8708
 -13145.45091 -13145.45092 477101.9446
 0 0 -0
 0 0 0
 0 0 0
 0 0 0
 4421.343079 -17735.19451 477114.0177
 1715.212713 -17871.4227 477126.3371
 -1715.212713 -17871.42271 477126.3371
 -4421.343079 -17735.1945 477114.0177
 0 0 -0
 0 0 -0
 0 0 -0
 0 0 0
 0 0 0
 0 0 0
 3400.429021 13727.29121 477254.5127
 1319.359837 13829.06427 477261.8648
 -1319.359837 13829.06427 477261.8648
 -3400.429021 13727.29122 477254.5127
 0 0 -0
 0 0 -0
 0 0 -0
 0 0 0
 10177.6369 10177.6369 477247.0039
 8250.666358 10666.92323 477273.5217
 4849.228586 11831.53011 477292.7521
 1652.567467 12230.59518 477304.4656
 -1652.567467 12230.5952 477304.4656
 -4849.228587 11831.53009 477292.7521
 -8250.666358 10666.92324 477273.5217
 -10177.6369 10177.6369 477247.0039
 0 0 -0
 0 0 0
 10666.92324 8250.666348 477273.5217
 8680.66365 8680.663682 477306.1527
 5485.997952 9259.937264 477342.6743
 1875.160689 9555.914172 477364.6819
 -1875.160689 9555.914141 477364.682
 -5485.997952 9259.93729 477342.6743
 -8680.663651 8680.663665 477306.1527
 -10666.92324 8250.666356 477273.5217
 0 0 -0
 13727.29122 3400.429017 477254.5127
 11831.53008 4849.228608 477292.7521
 9259.937317 5485.997911 477342.6743
 5875.348208 5875.348279 477391.6965
 2011.30208 6064.113757 477421.2527
 -2011.302079 6064.113796 477421.2527
 -5875.348209 5875.348245 477391.6965
 -9259.937316 5485.997936 477342.6743
 -11831.53008 4849.228594 477292.7521
 -13727.29122 3400.429021 477254.5127
 13829.06426 1319.359845 477261.8648
 12230.59523 1652.567444 477304.4656
 9555.914096 1875.160738 477364.682
 6064.113852 2011.302003 477421.2527
 2076.411452 2076.411561 477454.9699
 -2076.411453 2076.411518 477454.9699
 -6064.113852 2011.302041 477421.2527
 -9555.914096 1875.16071 477364.682
 -12230.59523 1652.567461 477304.4656
 -13829.06426 1319.35984 477261.8648
 13829.06428 -1319.359842 477261.8648
 12230.59515 -1652.567442 477304.4656
 9555.914228 -1875.160736 477364.6819
 6064.113681 -2011.302001 477421.2527
 2076.411646 -2076.411558 477454.9699
 -2076.411646 -2076.411517 477454.9699
 -6064.113681 -2011.302037 477421.2527
 -9555.914228 -1875.160708 477364.6819
 -12230.59515 -1652.567458 477304.4656
 -13829.06428 -1319.359837 477261.8648
 13727.29121 -3400.429015 477254.5127
 11831.53014 -4849.228605 477292.7521
 9259.937204 -5485.99791 477342.6743
 5875.348359 -5875.348275 477391.6965
 2011.301907 -6064.113757 477421.2527
 -2011.301907 -6064.113792 477421.2527
 -5875.34836 -5875.348245 477391.6965
 -9259.937204 -5485.997932 477342.6743
 -11831.53014 -4849.228592 477292.7521
 -13727.29121 -3400.429018 477254.5127
 0 0 0
 10666.92321 -8250.666347 477273.5217
 8680.663728 -8680.663679 477306.1527
 5485.997839 -9259.937264 477342.6743
 1875.160822 -9555.914167 477364.6819
 -1875.160822 -9555.914142 477364.6819
 -5485.997839 -9259.937286 477342.6743
 -8680.663728 -8680.663664 477306.1527
 -10666.92321 -8250.666353 477273.5217
 0 0 -0
 0 0 0
 10177.63691 -10177.6369 477247.0039
 8250.666326 -10666.92323 477273.5217
 4849.228651 -11831.53011 477292.7521
 1652.567386 -12230.59518 477304.4656
 -1652.567386 -12230.59519 477304.4656
 -4849.228651 -11831.53009 477292.7521
 -8250.666326 -10666.92323 477273.5217
 -10177.63691 -10177.6369 477247.0039
 0 0 -0
 0 0 0
 0 0 0
 0 0 0
 3400.429005 -13727.29121 477254.5127
 1319.359863 -13829.06427 477261.8648
 -1319.359863 -13829.06426 477261.8648
 -3400.429005 -13727.29122 477254.5127
 0 0 -0
 0 0 -0
 0 0 -0
 0 0 0
 0 0 0
 0 0 0
 2592.843124 10508.74565 477341.2979
 1005.863021 10582.81488 477345.6437
 -1005.863021 10582.81489 477345.6437
 -2592.843124 10508.74564 477341.2979
 0 0 -0
 0 0 -0
 0 0 -0
 0 0 0
 7793.961578 7793.961577 477336.757
 6312.66855 8159.644226 477352.534
 3704.716445 9049.368448 477363.8605
 1261.749397 9353.609741 477370.7042
 -1261.749397 9353.609725 477370.7042
 -3704.716444 9049.368461 477363.8605
 -6312.66855 8159.64422 477352.534
 -7793.961578 7793.961579 477336.757
 0 0 -0
 0 0 0
 8159.644217 6312.668556 477352.534
 6637.856585 6637.856568 477371.7095
 4193.719673 7081.481896 477393.063
 1433.355538 7309.273357 477405.8979
 -1433.355538 7309.273384 477405.8979
 -4193.719674 7081.481873 477393.063
 -6637.856585 6637.856583 477371.7095
 -8159.644218 6312.66855 477352.534
 0 0 -0
 10508.74564 2592.843127 477341.2979
 9049.368468 3704.716436 477363.8605
 7081.481861 4193.719697 477393.063
 4494.58935 4494.589308 477421.6885
 1539.12342 4641.394212 477438.9593
 -1539.123421 4641.394178 477438.9593
 -4494.58935 4494.589337 477421.6885
 -7081.481861 4193.719676 477393.063
 -9049.368468 3704.716448 477363.8605
 -10508.74564 2592.843124 477341.2979
 10582.81489 1005.86302 477345.6437
 9353.609708 1261.749408 477370.7042
 7309.273409 1433.355514 477405.8979
 4641.394144 1539.123469 477438.9593
 1590.071541 1590.071468 477458.7046
 -1590.071541 1590.071504 477458.7046
 -4641.394144 1539.123437 477438.9593
 -7309.273409 1433.355538 477405.8979
 -9353.609708 1261.749393 477370.7042
 -10582.81489 1005.863024 477345.6437
 10582.81487 -1005.863018 477345.6437
 9353.609764 -1261.749406 477370.7042
 7309.273318 -1433.355513 477405.8979
 4641.394262 -1539.123466 477438.9593
 1590.071408 -1590.071467 477458.7046
 -1590.071408 -1590.071502 477458.7046
 -4641.394262 -1539.123436 477438.9593
 -7309.273318 -1433.355536 477405.8979
 -9353.609764 -1261.749392 477370.7042
 -10582.81487 -1005.863022 477345.6437
 10508.74565 -2592.843125 477341.2979
 9049.368423 -3704.716436 477363.8605
 7081.481939 -4193.719694 477393.063
 4494.589245 -4494.589308 477421.6885
 1539.12354 -4641.394207 477438.9593
 -1539.12354 -4641.394179 477438.9593
 -4494.589245 -4494.589333 477421.6885
 -7081.48194 -4193.719676 477393.063
 -9049.368423 -3704.716446 477363.8605
 -10508.74565 -2592.843123 477341.2979
 0 0 0
 8159.64424 -6312.668554 477352.534
 6637.85653 -6637.856569 477371.7095
 4193.719753 -7081.481892 477393.063
 1433.355445 -7309.273359 477405.8979
 -1433.355445 -7309.273379 477405.8979
 -4193.719753 -7081.481875 477393.063
 -6637.85653 -6637.85658 477371.7095
 -8159.64424 -6312.668549 477352.534
 0 0 -0
 0 0 0
 7793.96157 -7793.961576 477336.757
 6312.668573 -8159.644224 477352.534
 3704.716399 -9049.368448 477363.8605
 1261.749454 -9353.609737 477370.7042
 -1261.749454 -9353.609726 477370.7042
 -3704.716399 -9049.368457 477363.8605
 -6312.668573 -8159.644219 477352.534
 -7793.96157 -7793.961577 477336.757
 0 0 -0
 0 0 0
 0 0 0
 0 0 0
 2592.843136 -10508.74565 477341.2979
 1005.863003 -10582.81488 477345.6437
 -1005.863003 -10582.81489 477345.6437
 -2592.843136 -10508.74564 477341.2979
 0 0 -0
 0 0 -0
 0 0 -0
 0 0 0
 0 0 0
 0 0 0
 1970.262289 8004.916473 477392.8264
 764.1412966 8058.226111 477395.3837
 -764.1412966 8058.226107 477395.3837
 -1970.262289 8004.916476 477392.8264
 0 0 -0
 0 0 -0
 0 0 -0
 0 0 0
 5939.089974 5939.089975 477390.119
 4804.985313 6209.95275 477399.4343
 2816.106488 6884.074039 477406.0644
 958.4587371 7112.992243 477410.0523
 -958.4587369 7112.992259 477410.0523
 -2816.106489 6884.074027 477406.0644
 -4804.985313 6209.952756 477399.4343
 -5939.089974 5939.089973 477390.119
 0 0 -0
 0 0 0
 6209.952751 4804.985314 477399.4343
 5047.048298 5047.048301 477410.647
 3185.821658 5381.072983 477423.0471
 1088.375716 5552.621393 477430.4715
 -1088.375717 5552.621368 477430.4715
 -3185.821657 5381.073004 477423.0471
 -5047.048298 5047.048287 477410.647
 -6209.952751 4804.98532 477399.4343
 0 0 -0
 8004.916475 1970.26229 477392.8264
 6884.074031 2816.106485 477406.0644
 5381.072994 3185.821658 477423.0471
 3413.079952 3413.079965 477439.6015
 1168.449784 3524.072045 477449.5648
 -1168.449784 3524.072076 477449.5648
 -3413.079952 3413.079938 477439.6015
 -5381.072994 3185.821678 477423.0471
 -6884.074031 2816.106474 477406.0644
 -8004.916475 1970.262293 477392.8264
 8058.226105 764.1412943 477395.3837
 7112.99226 958.4587433 477410.0523
 5552.621366 1088.375715 477430.4715
 3524.072076 1168.449772 477449.5648
 1207.077421 1207.077456 477460.9484
 -1207.077422 1207.077422 477460.9484
 -3524.072076 1168.449802 477449.5648
 -5552.621367 1088.375693 477430.4715
 -7112.99226 958.4587565 477410.0523
 -8058.226105 764.1412902 477395.3837
 8058.226114 -764.1412934 477395.3837
 7112.992234 -958.4587429 477410.0523
 5552.621407 -1088.375714 477430.4715
 3524.072025 -1168.449772 477449.5648
 1207.077477 -1207.077454 477460.9484
 -1207.077477 -1207.077422 477460.9484
 -3524.072026 -1168.4498 477449.5648
 -5552.621407 -1088.375693 477430.4715
 -7112.992234 -958.4587554 477410.0523
 -8058.226114 -764.1412895 477395.3837
 8004.91647 -1970.26229 477392.8264
 6884.074051 -2816.106483 477406.0644
 5381.072959 -3185.821659 477423.0471
 3413.079998 -3413.079962 477439.6015
 1168.449732 -3524.072047 477449.5648
 -1168.449733 -3524.072073 477449.5648
 -3413.079998 -3413.079939 477439.6015
 -5381.072959 -3185.821676 477423.0471
 -6884.074051 -2816.106474 477406.0644
 -8004.91647 -1970.262292 477392.8264
 0 0 0
 6209.95274 -4804.985314 477399.4343
 5047.048323 -5047.048298 477410.647
 3185.821622 -5381.072985 477423.0471
 1088.375758 -5552.621389 477430.4715
 -1088.375758 -5552.62137 477430.4715
 -3185.821622 -5381.073 477423.0471
 -5047.048323 -5047.048287 477410.647
 -6209.952741 -4804.985318 477399.4343
 0 0 -0
 0 0 0
 5939.089978 -5939.089974 477390.119
 4804.985302 -6209.95275 477399.4343
 2816.10651 -6884.074036 477406.0644
 958.4587104 -7112.992245 477410.0523
 -958.4587105 -7112.992255 477410.0523
 -2816.10651 -6884.074028 477406.0644
 -4804.985302 -6209.952754 477399.4343
 -5939.089978 -5939.089972 477390.119
 0 0 -0
 0 0 0
 0 0 0
 0 0 0
 1970.262283 -8004.916473 477392.8264
 764.1413053 -8058.22611 477395.3837
 -764.1413053 -8058.226107 477395.3837
 -1970.262283 -8004.916474 477392.8264
 0 0 -0
 0 0 -0
 0 0 -0
 0 0 0
 0 0 0
 0 0 0
 1498.338343 6095.798783 477422.7346
 580.9327884 6134.125305 477424.2414
 -580.9327883 6134.12531 477424.2414
 -1498.338343 6095.79878 477422.7346
 0 0 -0
 0 0 -0
 0 0 -0
 0 0 0
 4524.351443 4524.351445 477421.1262
 3656.202207 4724.78492 477426.6225
 2140.345367 5234.691984 477430.5062
 727.9929772 5406.308616 477432.8363
 -727.9929773 5406.308599 477432.8363
 -2140.345367 5234.691997 477430.5062
 -3656.202207 4724.784914 477426.6225
 -4524.351443 4524.351447 477421.1262
 0 0 -0
 0 0 0
 4724.784923 3656.202201 477426.6225
 3835.557453 3835.557463 477433.1873
 2418.389325 4085.616875 477440.3946
 825.6856448 4213.748035 477444.6919
 -825.6856446 4213.748062 477444.6919
 -2418.389325 4085.616852 477440.3946
 -3835.557453 3835.557478 477433.1873
 -4724.784924 3656.202195 477426.6225
 0 0 -0
 6095.798783 1498.338339 477422.7346
 5234.691982 2140.34538 477430.5062
 4085.616881 2418.389308 477440.3946
 2588.491867 2588.491878 477449.9667
 885.647513 2671.391089 477455.7054
 -885.6475132 2671.391053 477455.7054
 -2588.491866 2588.491909 477449.9667
 -4085.616882 2418.389286 477440.3946
 -5234.691982 2140.345393 477430.5062
 -6095.798783 1498.338336 477422.7346
 6134.125306 580.9327948 477424.2414
 5406.308612 727.9929594 477432.8363
 4213.748039 825.6856668 477444.6919
 2671.391086 885.6474979 477455.7054
 914.5180806 914.5180789 477462.2484
 -914.5180803 914.5181186 477462.2484
 -2671.391086 885.6474631 477455.7054
 -4213.748039 825.6856929 477444.6919
 -5406.308612 727.9929438 477432.8363
 -6134.125306 580.9327996 477424.2414
 6134.125307 -580.9327948 477424.2414
 5406.308609 -727.992959 477432.8363
 4213.748045 -825.6856673 477444.6919
 2671.391074 -885.6474972 477455.7054
 914.5180962 -914.5180795 477462.2484
 -914.5180965 -914.518118 477462.2484
 -2671.391073 -885.6474634 477455.7054
 -4213.748046 -825.6856927 477444.6919
 -5406.308609 -727.9929439 477432.8363
 -6134.125307 -580.9327996 477424.2414
 6095.798783 -1498.338339 477422.7346
 5234.691984 -2140.345381 477430.5062
 4085.616877 -2418.389307 477440.3946
 2588.491875 -2588.491879 477449.9667
 885.647501 -2671.391087 477455.7054
 -885.6475006 -2671.391055 477455.7054
 -2588.491876 -2588.491908 477449.9667
 -4085.616876 -2418.389286 477440.3946
 -5234.691984 -2140.345392 477430.5062
 -6095.798783 -1498.338336 477422.7346
 0 0 0
 4724.784923 -3656.202201 477426.6225
 3835.557455 -3835.557464 477433.1873
 2418.38932 -4085.616873 477440.3946
 825.6856517 -4213.748037 477444.6919
 -825.685652 -4213.748061 477444.6919
 -2418.38932 -4085.616853 477440.3946
 -3835.557456 -3835.557478 477433.1873
 -4724.784923 -3656.202195 477426.6225
 0 0 -0
 0 0 0
 4524.351443 -4524.351445 477421.1262
 3656.202206 -4724.78492 477426.6225
 2140.345369 -5234.691985 477430.5062
 727.9929743 -5406.308614 477432.8363
 -727.9929741 -5406.3086 477432.8363
 -2140.345369 -5234.691996 477430.5062
 -3656.202206 -4724.784914 477426.6225
 -4524.351443 -4524.351447 477421.1262
 0 0 -0
 0 0 0
 0 0 0
 0 0 0
 1498.338343 -6095.798783 477422.7346
 580.932789 -6134.125305 477424.2414
 -580.9327891 -6134.12531 477424.2414
 -1498.338342 -6095.79878 477422.7346
 0 0 -0
 0 0 -0
 0 0 -0
 0 0 0
 0 0 0
 0 0 0
 1144.296881 4657.905501 477439.908
 443.5186589 4685.618526 477440.8022
 -443.5186589 4685.618519 477440.8022
 -1144.296881 4657.905505 477439.908
 0 0 -0
 0 0 -0
 0 0 -0
 0 0 0
 3458.473845 3458.473843 477438.9482
 2791.776933 3607.460504 477442.2096
 1632.759404 3994.307662 477444.5003
 555.0278218 4123.291754 477445.8731
 -555.0278218 4123.291776 477445.8731
 -1632.759404 3994.307644 477444.5003
 -2791.776933 3607.460513 477442.2096
 -3458.473845 3458.47384 477438.9482
 0 0 -0
 0 0 0
 3607.4605 2791.776939 477442.2096
 2925.011821 2925.011808 477446.0806
 1842.150576 3112.488934 477450.3013
 628.5337477 3208.220226 477452.8077
 -628.5337478 3208.220188 477452.8077
 -1842.150576 3112.488966 477450.3013
 -2925.011821 2925.011786 477446.0806
 -3607.4605 2791.776948 477442.2096
 0 0 -0
 4657.9055 1144.296885 477439.908
 3994.307668 1632.759389 477444.5003
 3112.488923 1842.150596 477450.3013
 1969.429585 1969.429565 477455.8765
 673.3727227 2031.22983 477459.2045
 -673.3727227 2031.22988 477459.2045
 -1969.429585 1969.429522 477455.8765
 -3112.488923 1842.150628 477450.3013
 -3994.307668 1632.759371 477444.5003
 -4657.9055 1144.296889 477439.908
 4685.618527 443.5186517 477440.8022
 4123.291752 555.0278412 477445.8731
 3208.220231 628.5337209 477452.8077
 2031.229822 673.3727461 477459.2045
 694.8828169 694.8828047 477462.9887
 -694.882817 694.8827482 477462.9887
 -2031.229822 673.3727958 477459.2045
 -3208.220231 628.5336834 477452.8077
 -4123.291752 555.0278637 477445.8731
 -4685.618527 443.5186446 477440.8022
 4685.61852 -443.5186523 477440.8022
 4123.291773 -555.0278421 477445.8731
 3208.220193 -628.5337212 477452.8077
 2031.229876 -673.3727473 477459.2045
 694.8827531 -694.882805 477462.9887
 -694.8827528 -694.8827491 477462.9887
 -2031.229876 -673.3727965 477459.2045
 -3208.220193 -628.533684 477452.8077
 -4123.291773 -555.0278644 477445.8731
 -4685.61852 -443.5186453 477440.8022
 4657.905504 -1144.296886 477439.908
 3994.307651 -1632.759389 477444.5003
 3112.488955 -1842.150598 477450.3013
 1969.429539 -1969.429565 477455.8765
 673.3727778 -2031.229832 477459.2045
 -673.3727781 -2031.22988 477459.2045
 -1969.429538 -1969.429523 477455.8765
 -3112.488955 -1842.150629 477450.3013
 -3994.307651 -1632.759371 477444.5003
 -4657.905504 -1144.29689 477439.908
 0 0 0
 3607.460509 -2791.776941 477442.2096
 2925.0118 -2925.011808 477446.0806
 1842.150609 -3112.488936 477450.3013
 628.5337074 -3208.220226 477452.8077
 -628.5337071 -3208.22019 477452.8077
 -1842.150609 -3112.488967 477450.3013
 -2925.011799 -2925.011787 477446.0806
 -3607.460509 -2791.776949 477442.2096
 0 0 -0
 0 0 0
 3458.473842 -3458.473843 477438.9482
 2791.776942 -3607.460506 477442.2096
 1632.759386 -3994.307662 477444.5003
 555.0278452 -4123.291755 477445.8731
 -555.0278455 -4123.291776 477445.8731
 -1632.759385 -3994.307645 477444.5003
 -2791.776942 -3607.460514 477442.2096
 -3458.473842 -3458.473841 477438.9482
 0 0 -0
 0 0 0
 0 0 0
 0 0 0
 1144.296886 -4657.905502 477439.908
 443.5186516 -4685.618526 477440.8022
 -443.5186516 -4685.61852 477440.8022
 -1144.296886 -4657.905506 477439.908
 0 0 -0
 0 0 -0
 0 0 -0
 0 0 0
 0 0 0
 0 0 0
 880.0802888 3582.011366 477449.7523
 340.996135 3602.25941 477450.2893
 -340.9961351 3602.259421 477450.2893
 -880.0802888 3582.011359 477449.7523
 0 0 -0
 0 0 -0
 0 0 -0
 0 0 0
 2660.682407 2660.682407 477449.173
 2145.597768 2772.355818 477451.1302
 1253.913571 3067.733901 477452.4982
 426.0374094 3165.330306 477453.3176
 -426.0374093 3165.330273 477453.3176
 -1253.913572 3067.733927 477452.4982
 -2145.597767 2772.355804 477451.1302
 -2660.682407 2660.682412 477449.173
 0 0 -0
 0 0 0
 2772.35582 2145.597764 477451.1302
 2245.303536 2245.30354 477453.4412