# OOMMF OVF 2.0
#
# Segment count: 1
#
# Begin: Segment
# Begin: Header
#
# Title: Oxs_MinDriver::Magnetization
# Desc: Oxs vector field output
# Desc:  MIF source file: F:/Bogdan/UNIC/2022/Master_degree/Simulation_samples/Cylinder0_5000 1.mif
# Desc:  Iteration: 1508, State id: 6954
# Desc:  Stage: 3, Stage iteration: 75
# Desc:  Stage simulation time: 0 s
# Desc:  Total simulation time: -2 s
# meshunit: m
# meshtype: rectangular
# xbase: -8.9999999999999995e-09
# ybase: -8.9999999999999995e-09
# zbase: -8.6999999999999998e-08
# xnodes: 10
# ynodes: 10
# znodes: 88
# xstepsize: 2.0000000000000001e-09
# ystepsize: 2.0000000000000001e-09
# zstepsize: 2.0000000000000001e-09
# xmin: -1e-08
# ymin: -1e-08
# zmin: -8.7999999999999994e-08
# xmax: 1e-08
# ymax: 1e-08
# zmax: 8.800000000000002e-08
# valuedim: 3
# valuelabels: Magnetization_x Magnetization_y Magnetization_z
# valueunits: A/m A/m A/m
#
# End: Header
#
# Begin: Data Text
 0 0 0
 0 0 0
 0 0 0
 8784.247779 33313.38534 476219.4102
 3314.008254 33548.88789 476272.3599
 -3314.008254 33548.8879 476272.3599
 -8784.247779 33313.38534 476219.4102
 0 0 -0
 0 0 -0
 0 0 -0
 0 0 0
 24731.57474 24731.57479 476181.2362
 19687.80646 25796.65233 476359.942
 11645.94815 28050.53554 476497.0206
 3938.298438 28675.18366 476585.8736
 -3938.298439 28675.18365 476585.8736
 -11645.94815 28050.53554 476497.0206
 -19687.80646 25796.65233 476359.942
 -24731.57474 24731.57479 476181.2362
 0 0 -0
 0 0 0
 25796.65228 19687.8065 476359.942
 20349.91403 20349.91408 476595.8805
 12632.65564 21254.84578 476823.3623
 4275.377574 21661.26796 476953.2282
 -4275.377574 21661.26796 476953.2282
 -12632.65564 21254.84578 476823.3623
 -20349.91403 20349.91408 476595.8805
 -25796.65228 19687.8065 476359.942
 0 0 -0
 33313.3853 8784.247824 476219.4102
 28050.5355 11645.94819 476497.0206
 21254.84573 12632.65569 476823.3623
 13176.97812 13176.97816 477100.2052
 4458.326979 13420.4896 477254.5286
 -4458.326979 13420.48959 477254.5286
 -13176.97811 13176.97816 477100.2052
 -21254.84574 12632.65569 476823.3623
 -28050.5355 11645.94819 476497.0206
 -33313.3853 8784.247824 476219.4102
 33548.88785 3314.008297 476272.3599
 28675.18361 3938.298488 476585.8736
 21661.26791 4275.377614 476953.2282
 13420.48955 4458.327028 477254.5286
 4540.003594 4540.003641 477420.8291
 -4540.003593 4540.003642 477420.8291
 -13420.48955 4458.327027 477254.5286
 -21661.26791 4275.377614 476953.2282
 -28675.18361 3938.298489 476585.8736
 -33548.88785 3314.008297 476272.3599
 33548.88785 -3314.008208 476272.3599
 28675.18361 -3938.298398 476585.8736
 21661.26792 -4275.377524 476953.2282
 13420.48954 -4458.326934 477254.5286
 4540.003601 -4540.00355 477420.8291
 -4540.003602 -4540.003548 477420.8291
 -13420.48954 -4458.326937 477254.5286
 -21661.26792 -4275.377522 476953.2282
 -28675.18361 -3938.298399 476585.8736
 -33548.88785 -3314.008207 476272.3599
 33313.3853 -8784.247735 476219.4102
 28050.5355 -11645.9481 476497.0206
 21254.84573 -12632.6556 476823.3623
 13176.97812 -13176.97807 477100.2052
 4458.326972 -13420.4895 477254.5286
 -4458.326971 -13420.48951 477254.5286
 -13176.97812 -13176.97807 477100.2052
 -21254.84573 -12632.6556 476823.3623
 -28050.5355 -11645.9481 476497.0206
 -33313.3853 -8784.247736 476219.4102
 0 0 0
 25796.65228 -19687.80641 476359.942
 20349.91404 -20349.91399 476595.8805
 12632.65564 -21254.84569 476823.3623
 4275.37758 -21661.26787 476953.2282
 -4275.37758 -21661.26787 476953.2282
 -12632.65564 -21254.84569 476823.3623
 -20349.91404 -20349.91398 476595.8805
 -25796.65228 -19687.80641 476359.942
 0 0 -0
 0 0 0
 24731.57474 -24731.5747 476181.2362
 19687.80645 -25796.65224 476359.942
 11645.94815 -28050.53545 476497.0206
 3938.298435 -28675.18357 476585.8736
 -3938.298435 -28675.18357 476585.8736
 -11645.94815 -28050.53545 476497.0206
 -19687.80645 -25796.65224 476359.942
 -24731.57474 -24731.5747 476181.2362
 0 0 -0
 0 0 0
 0 0 0
 0 0 0
 8784.247778 -33313.38526 476219.4102
 3314.008256 -33548.88781 476272.3599
 -3314.008256 -33548.88781 476272.3599
 -8784.247778 -33313.38526 476219.4102
 0 0 -0
 0 0 -0
 0 0 -0
 0 0 0
 0 0 0
 0 0 0
 7404.475928 28946.79707 476528.2027
 2852.944886 29163.63057 476563.967
 -2852.944886 29163.63057 476563.967
 -7404.475928 28946.79707 476528.2027
 0 0 -0
 0 0 -0
 0 0 -0
 0 0 0
 21453.90977 21453.90981 476499.0355
 17293.11902 22455.14583 476622.0576
 10204.54666 24717.01546 476714.5977
 3470.961265 25416.85336 476774.3778
 -3470.961265 25416.85337 476774.3778
 -10204.54666 24717.01546 476714.5977
 -17293.11902 22455.14583 476622.0576
 -21453.90977 21453.90981 476499.0355
 0 0 -0
 0 0 0
 22455.14579 17293.11905 476622.0576
 18036.29079 18036.29084 476782.189
 11287.25007 19011.68916 476951.8057
 3835.753621 19471.11758 477051.3954
 -3835.753622 19471.11757 477051.3954
 -11287.25007 19011.68917 476951.8057
 -18036.29079 18036.29084 476782.189
 -22455.14579 17293.11906 476622.0576
 0 0 -0
 28946.79703 7404.475967 476528.2027
 24717.01541 10204.54672 476714.5977
 19011.68913 11287.25009 476951.8057
 11888.94042 11888.94048 477167.8714
 4038.132838 12161.52661 477292.0092
 -4038.132837 12161.52662 477292.0092
 -11888.94043 11888.94047 477167.8714
 -19011.68912 11287.2501 476951.8057
 -24717.01542 10204.54672 476714.5977
 -28946.79703 7404.475967 476528.2027
 29163.63053 2852.944933 476563.967
 25416.85333 3470.961294 476774.3778
 19471.11753 3835.75368 477051.3954
 12161.52657 4038.132871 477292.0092
 4129.085281 4129.085324 477428.2905
 -4129.085284 4129.085322 477428.2905
 -12161.52657 4038.132871 477292.0092
 -19471.11754 3835.753681 477051.3954
 -25416.85332 3470.961293 476774.3778
 -29163.63053 2852.944934 476563.967
 29163.63053 -2852.944849 476563.967
 25416.85333 -3470.96121 476774.3778
 19471.11753 -3835.753592 477051.3954
 12161.52658 -4038.132788 477292.0092
 4129.085266 -4129.085233 477428.2905
 -4129.085263 -4129.085241 477428.2905
 -12161.52659 -4038.132781 477292.0092
 -19471.11752 -3835.753598 477051.3954
 -25416.85334 -3470.961206 476774.3778
 -29163.63053 -2852.94485 476563.967
 28946.79703 -7404.475884 476528.2027
 24717.01541 -10204.54663 476714.5977
 19011.68913 -11287.25001 476951.8057
 11888.94041 -11888.94038 477167.8714
 4038.132852 -12161.52653 477292.0092
 -4038.132855 -12161.52652 477292.0092
 -11888.94041 -11888.9404 477167.8714
 -19011.68914 -11287.25001 476951.8057
 -24717.01541 -10204.54664 476714.5977
 -28946.79703 -7404.475883 476528.2027
 0 0 0
 22455.14579 -17293.11897 476622.0576
 18036.29078 -18036.29075 476782.189
 11287.25008 -19011.68908 476951.8057
 3835.75361 -19471.11749 477051.3954
 -3835.753608 -19471.1175 477051.3954
 -11287.25008 -19011.68907 476951.8057
 -18036.29078 -18036.29076 476782.189
 -22455.14579 -17293.11897 476622.0576
 0 0 -0
 0 0 0
 21453.90977 -21453.90973 476499.0355
 17293.11902 -22455.14575 476622.0576
 10204.54666 -24717.01537 476714.5977
 3470.961272 -25416.85329 476774.3778
 -3470.961273 -25416.85328 476774.3778
 -10204.54666 -24717.01538 476714.5977
 -17293.11902 -22455.14574 476622.0576
 -21453.90976 -21453.90973 476499.0355
 0 0 -0
 0 0 0
 0 0 0
 0 0 0
 7404.475929 -28946.79699 476528.2027
 2852.944884 -29163.63049 476563.967
 -2852.944883 -29163.63049 476563.967
 -7404.47593 -28946.79699 476528.2027
 0 0 -0
 0 0 -0
 0 0 -0
 0 0 0
 0 0 0
 0 0 0
 5952.562455 23696.42196 476838.461
 2306.835809 23879.37534 476860.9076
 -2306.835809 23879.37534 476860.9076
 -5952.562455 23696.42196 476838.461
 0 0 -0
 0 0 -0
 0 0 -0
 0 0 0
 17556.69788 17556.69791 476817.9904
 14220.7737 18409.04037 476896.9995
 8378.369553 20373.15422 476955.5627
 2855.274915 21022.91839 476992.4062
 -2855.274915 21022.91838 476992.4062
 -8378.369552 20373.15423 476955.5627
 -14220.7737 18409.04037 476896.9995
 -17556.69788 17556.69791 476817.9904
 0 0 -0
 0 0 0
 18409.04033 14220.77374 476896.9995
 14919.14591 14919.14593 476997.599
 9393.213612 15838.20508 477108.7822
 3202.881353 16290.55478 477175.262
 -3202.881352 16290.55479 477175.262
 -9393.213615 15838.20506 477108.7822
 -14919.14591 14919.14594 476997.599
 -18409.04033 14220.77374 476896.9995
 0 0 -0
 23696.42192 5952.562497 476838.461
 20373.1542 8378.369572 476955.5627
 15838.20502 9393.213675 477108.7822
 9983.613797 9983.613813 477255.2003
 3404.662207 10259.33741 477341.6235
 -3404.662209 10259.3374 477341.6235
 -9983.613791 9983.613818 477255.2003
 -15838.20502 9393.213672 477108.7822
 -20373.15419 8378.369573 476955.5627
 -23696.42192 5952.562497 476838.461
 23879.37531 2306.835838 476860.9076
 21022.91834 2855.274973 476992.4062
 16290.55475 3202.881365 477175.262
 10259.33736 3404.662263 477341.6235
 3497.664856 3497.664891 477438.3772
 -3497.664853 3497.664886 477438.3772
 -10259.33737 3404.662268 477341.6235
 -16290.55474 3202.88136 477175.262
 -21022.91835 2855.274977 476992.4062
 -23879.3753 2306.835837 476860.9076
 23879.3753 -2306.835764 476860.9076
 21022.91835 -2855.274897 476992.4062
 16290.55475 -3202.881293 477175.262
 10259.33736 -3404.662183 477341.6235
 3497.664863 -3497.66482 477438.3772
 -3497.664866 -3497.664803 477438.3772
 -10259.33735 -3404.662198 477341.6235
 -16290.55476 -3202.88128 477175.262
 -21022.91833 -2855.274905 476992.4062
 -23879.37531 -2306.835762 476860.9076
 23696.42192 -5952.562423 476838.461
 20373.1542 -8378.369501 476955.5627
 15838.20502 -9393.213592 477108.7822
 9983.613797 -9983.613749 477255.2003
 3404.662201 -10259.33732 477341.6235
 -3404.662197 -10259.33734 477341.6235
 -9983.613806 -9983.613728 477255.2003
 -15838.20501 -9393.213608 477108.7822
 -20373.1542 -8378.369493 476955.5627
 -23696.42192 -5952.562425 476838.461
 0 0 0
 18409.04033 -14220.77367 476896.9995
 14919.14591 -14919.14586 476997.599
 9393.213611 -15838.20499 477108.7822
 3202.881358 -16290.55472 477175.262
 -3202.88136 -16290.5547 477175.262
 -9393.213605 -15838.20501 477108.7822
 -14919.14592 -14919.14585 476997.599
 -18409.04033 -14220.77367 476896.9995
 0 0 -0
 0 0 0
 17556.69788 -17556.69784 476817.9904
 14220.7737 -18409.0403 476896.9995
 8378.369554 -20373.15416 476955.5627
 2855.274912 -21022.9183 476992.4062
 -2855.274911 -21022.91832 476992.4062
 -8378.369557 -20373.15415 476955.5627
 -14220.7737 -18409.0403 476896.9995
 -17556.69788 -17556.69784 476817.9904
 0 0 -0
 0 0 0
 0 0 0
 0 0 0
 5952.562455 -23696.42188 476838.461
 2306.83581 -23879.37527 476860.9076
 -2306.83581 -23879.37526 476860.9076
 -5952.562454 -23696.42189 476838.461
 0 0 -0
 0 0 -0
 0 0 -0
 0 0 0
 0 0 0
 0 0 0
 4665.955972 18769.57882 477072.1152
 1810.47178 18913.12335 477085.828
 -1810.47178 18913.12335 477085.828
 -4665.955972 18769.57882 477072.1152
 0 0 -0
 0 0 -0
 0 0 -0
 0 0 0
 13908.09849 13908.09853 477058.6975
 11278.95733 14586.60192 477107.8363
 6635.290292 16175.28634 477143.7984
 2261.70614 16715.81549 477165.9434
 -2261.70614 16715.8155 477165.9434
 -6635.290292 16175.28634 477143.7984
 -11278.95732 14586.60192 477107.8363
 -13908.09849 13908.09852 477058.6975
 0 0 -0
 0 0 0
 14586.6019 11278.95735 477107.8363
 11862.57675 11862.5768 477169.1837
 7490.681423 12640.26007 477237.8703
 2558.779132 13033.07367 477279.2295
 -2558.779133 13033.07366 477279.2295
 -7490.681421 12640.26008 477237.8703
 -11862.57675 11862.5768 477169.1837
 -14586.6019 11278.95735 477107.8363
 0 0 -0
 18769.57879 4665.955997 477072.1152
 16175.2863 6635.290343 477143.7984
 12640.26007 7490.681424 477237.8703
 8005.492623 8005.492682 477329.7555
 2737.327533 8251.877522 477384.8394
 -2737.327531 8251.877518 477384.8394
 -8005.492629 8005.492686 477329.7555
 -12640.26006 7490.68142 477237.8703
 -16175.2863 6635.290346 477143.7984
 -18769.57879 4665.955996 477072.1152
 18913.12332 1810.47182 477085.828
 16715.81548 2261.706145 477165.9434
 13033.07361 2558.779195 477279.2295
 8251.877507 2737.327539 477384.8394
 2821.57554 2821.57558 477447.3256
 -2821.575543 2821.575597 477447.3256
 -8251.877498 2737.327523 477384.8394
 -13033.07363 2558.779207 477279.2295
 -16715.81547 2261.706137 477165.9434
 -18913.12332 1810.471822 477085.828
 18913.12332 -1810.471758 477085.828
 16715.81546 -2261.706085 477165.9434
 13033.07364 -2558.77913 477279.2295
 8251.877487 -2737.327481 477384.8394
 2821.575555 -2821.575512 477447.3256
 -2821.575551 -2821.575541 477447.3256
 -8251.877498 -2737.327455 477384.8394
 -13033.07362 -2558.77915 477279.2295
 -16715.81547 -2261.706073 477165.9434
 -18913.12332 -1810.471762 477085.828
 18769.57879 -4665.955937 477072.1152
 16175.28631 -6635.290279 477143.7984
 12640.26005 -7490.681369 477237.8703
 8005.49264 -8005.492609 477329.7555
 2737.32752 -8251.877474 477384.8394
 -2737.327523 -8251.87744 477384.8394
 -8005.492631 -8005.492639 477329.7555
 -12640.26006 -7490.681347 477237.8703
 -16175.2863 -6635.290291 477143.7984
 -18769.57879 -4665.955934 477072.1152
 0 0 0
 14586.60189 -11278.95729 477107.8363
 11862.57676 -11862.57673 477169.1837
 7490.681411 -12640.26002 477237.8703
 2558.779142 -13033.07359 477279.2295
 -2558.77914 -13033.07362 477279.2295
 -7490.681417 -12640.26 477237.8703
 -11862.57675 -11862.57675 477169.1837
 -14586.6019 -11278.95728 477107.8363
 0 0 -0
 0 0 0
 13908.09849 -13908.09846 477058.6975
 11278.95732 -14586.60186 477107.8363
 6635.290298 -16175.28627 477143.7984
 2261.706133 -16715.81544 477165.9434
 -2261.706135 -16715.81542 477165.9434
 -6635.290295 -16175.28629 477143.7984
 -11278.95732 -14586.60186 477107.8363
 -13908.09849 -13908.09847 477058.6975
 0 0 -0
 0 0 0
 0 0 0
 0 0 0
 4665.955971 -18769.57876 477072.1152
 1810.471782 -18913.12329 477085.828
 -1810.471782 -18913.12329 477085.828
 -4665.955971 -18769.57875 477072.1152
 0 0 -0
 0 0 -0
 0 0 -0
 0 0 0
 0 0 0
 0 0 0
 3600.576691 14576.1637 477227.8728
 1397.287271 14683.66148 477236.1145
 -1397.287271 14683.66148 477236.1145
 -3600.576691 14576.1637 477227.8728
 0 0 -0
 0 0 -0
 0 0 -0
 0 0 0
 10803.61956 10803.61958 477219.4829
 8758.748593 11323.0281 477249.3527
 5144.793144 12562.93675 477270.966
 1752.936201 12988.04727 477284.0969
 -1752.936201 12988.04727 477284.0969
 -5144.793144 12562.93675 477270.966
 -8758.748593 11323.0281 477249.3527
 -10803.61956 10803.61958 477219.4829
 0 0 -0
 0 0 0
 11323.02807 8758.748624 477249.3527
 9216.288511 9216.288515 477286.0687
 5824.457525 9834.088554 477327.181
 1990.839526 10150.10076 477351.9491
 -1990.839526 10150.10076 477351.9491
 -5824.457526 9834.088559 477327.181
 -9216.288509 9216.288511 477286.0687
 -11323.02807 8758.748626 477249.3527
 0 0 -0
 14576.16368 3600.576718 477227.8728
 12562.93674 5144.793148 477270.966
 9834.088509 5824.457574 477327.181
 6240.636486 6240.636483 477382.4255
 2136.551329 6442.634032 477415.7506
 -2136.551331 6442.634051 477415.7506
 -6240.636481 6240.636467 477382.4255
 -9834.088515 5824.457586 477327.181
 -12562.93674 5144.793141 477270.966
 -14576.16368 3600.57672 477227.8728
 14683.66146 1397.287285 477236.1145
 12988.04723 1752.936248 477284.0969
 10150.10076 1990.839519 477351.9491
 6442.633992 2136.551378 477415.7506
 2206.316137 2206.316149 477453.8047
 -2206.316134 2206.316117 477453.8047
 -6442.634 2136.551406 477415.7506
 -10150.10075 1990.839498 477351.9491
 -12988.04724 1752.93626 477284.0969
 -14683.66146 1397.287281 477236.1145
 14683.66145 -1397.28724 477236.1145
 12988.04726 -1752.936201 477284.0969
 10150.10072 -1990.839475 477351.9491
 6442.634031 -2136.551328 477415.7506
 2206.316101 -2206.316107 477453.8047
 -2206.316105 -2206.316066 477453.8047
 -6442.634021 -2136.551364 477415.7506
 -10150.10074 -1990.839448 477351.9491
 -12988.04725 -1752.936216 477284.0969
 -14683.66145 -1397.287235 477236.1145
 14576.16368 -3600.576672 477227.8728
 12562.93672 -5144.793105 477270.966
 9834.088538 -5824.457523 477327.181
 6240.636452 -6240.636445 477382.4255
 2136.551362 -6442.633975 477415.7506
 -2136.551359 -6442.634017 477415.7506
 -6240.636461 -6240.636408 477382.4255
 -9834.088527 -5824.45755 477327.181
 -12562.93673 -5144.79309 477270.966
 -14576.16368 -3600.576676 477227.8728
 0 0 0
 11323.02808 -8758.748577 477249.3527
 9216.288492 -9216.288475 477286.0687
 5824.457549 -9834.088498 477327.181
 1990.8395 -10150.10073 477351.9491
 -1990.839502 -10150.1007 477351.9491
 -5824.457544 -9834.088528 477327.181
 -9216.288498 -9216.288456 477286.0687
 -11323.02808 -8758.748585 477249.3527
 0 0 -0
 0 0 0
 10803.61956 -10803.61954 477219.4829
 8758.7486 -11323.02805 477249.3527
 5144.79313 -12562.93671 477270.966
 1752.936217 -12988.04721 477284.0969
 -1752.936216 -12988.04724 477284.0969
 -5144.793132 -12562.9367 477270.966
 -8758.748598 -11323.02806 477249.3527
 -10803.61956 -10803.61954 477219.4829
 0 0 -0
 0 0 0
 0 0 0
 0 0 0
 3600.576694 -14576.16366 477227.8728
 1397.287266 -14683.66143 477236.1145
 -1397.287266 -14683.66143 477236.1145
 -3600.576693 -14576.16366 477227.8728
 0 0 -0
 0 0 -0
 0 0 -0
 0 0 0
 0 0 0
 0 0 0
 2753.129839 11190.2456 477324.9103
 1068.26047 11268.72896 477329.8083
 -1068.26047 11268.72896 477329.8083
 -2753.12984 11190.2456 477324.9103
 0 0 -0
 0 0 -0
 0 0 -0
 0 0 0
 8296.562765 8296.56278 477319.8146
 6720.293151 8685.997961 477337.6817
 3941.573167 9635.97669 477350.4826
 1342.134276 9960.944343 477358.1984
 -1342.134277 9960.944336 477358.1984
 -3941.573165 9635.976696 477350.4826
 -6720.293152 8685.997958 477337.6817
 -8296.562764 8296.562781 477319.8146
 0 0 -0
 0 0 0
 8685.997951 6720.293161 477337.6817
 7067.237598 7067.237622 477359.382
 4464.815395 7541.501191 477383.5591
 1525.966324 7785.205615 477398.0868
 -1525.966323 7785.205631 477398.0868
 -4464.815397 7541.501176 477383.5591
 -7067.237598 7067.237632 477359.382
 -8685.997951 6720.293156 477337.6817
 0 0 -0
 11190.24559 2753.129851 477324.9103
 9635.976668 3941.573191 477350.4826
 7541.50119 4464.815394 477383.5591
 4787.036116 4787.036147 477416.0029
 1639.356612 4944.357116 477435.5843
 -1639.356612 4944.357087 477435.5843
 -4787.036117 4787.036172 477416.0029
 -7541.501187 4464.815376 477383.5591
 -9635.976671 3941.573201 477350.4826
 -11190.24559 2753.129848 477324.9103
 11268.72894 1068.26049 477329.8083
 9960.94434 1342.134276 477358.1984
 7785.205587 1525.966357 477398.0868
 4944.357114 1639.35661 477435.5843
 1694.007167 1694.00719 477457.9897
 -1694.007168 1694.00723 477457.9897
 -4944.357109 1639.356575 477435.5843
 -7785.205594 1525.966383 477398.0868
 -9960.944333 1342.134261 477358.1984
 -11268.72894 1068.260494 477329.8083
 11268.72895 -1068.260461 477329.8083
 9960.944311 -1342.134248 477358.1984
 7785.205628 -1525.966328 477398.0868
 4944.357067 -1639.356583 477435.5843
 1694.007214 -1694.007158 477457.9897
 -1694.007212 -1694.007205 477457.9897
 -4944.357073 -1639.356543 477435.5843
 -7785.205619 -1525.966357 477398.0868
 -9960.94432 -1342.134231 477358.1984
 -11268.72895 -1068.260466 477329.8083
 11190.24559 -2753.129823 477324.9103
 9635.976689 -3941.573162 477350.4826
 7541.501156 -4464.815368 477383.5591
 4787.036157 -4787.036114 477416.0029
 1639.35657 -4944.357094 477435.5843
 -1639.356572 -4944.35705 477435.5843
 -4787.036151 -4787.036151 477416.0029
 -7541.501163 -4464.815341 477383.5591
 -9635.976683 -3941.573176 477350.4826
 -11190.24559 -2753.129819 477324.9103
 0 0 0
 8685.997941 -6720.293133 477337.6817
 7067.23762 -7067.237591 477359.382
 4464.815366 -7541.501167 477383.5591
 1525.966357 -7785.205578 477398.0868
 -1525.966356 -7785.205613 477398.0868
 -4464.815369 -7541.501138 477383.5591
 -7067.237616 -7067.23761 477359.382
 -8685.997944 -6720.293125 477337.6817
 0 0 -0
 0 0 0
 8296.562768 -8296.562751 477319.8146
 6720.293142 -8685.997934 477337.6817
 3941.573183 -9635.976658 477350.4826
 1342.134255 -9960.944321 477358.1984
 -1342.134256 -9960.9443 477358.1984
 -3941.573182 -9635.976674 477350.4826
 -6720.293143 -8685.997926 477337.6817
 -8296.562767 -8296.562754 477319.8146
 0 0 -0
 0 0 0
 0 0 0
 0 0 0
 2753.129835 -11190.24558 477324.9103
 1068.260477 -11268.72893 477329.8083
 -1068.260477 -11268.72893 477329.8083
 -2753.129836 -11190.24557 477324.9103
 0 0 -0
 0 0 -0
 0 0 -0
 0 0 0
 0 0 0
 0 0 0
 2096.629272 8543.318927 477382.9565
 813.3278615 8599.996601 477385.8501
 -813.3278621 8599.996597 477385.8501
 -2096.629271 8543.318929 477382.9565
 0 0 -0
 0 0 -0
 0 0 -0
 0 0 0
 6336.170148 6336.170153 477379.9087
 5126.819406 6625.513349 477390.5001
 3002.932788 7347.104476 477398.0244
 1021.832231 7592.268094 477402.5394
 -1021.83223 7592.268106 477402.5394
 -3002.932791 7347.104467 477398.0244
 -5126.819404 6625.513354 477390.5001
 -6336.170148 6336.170151 477379.9087
 0 0 -0
 0 0 0
 6625.513344 5126.819411 477390.5001
 5385.820949 5385.820954 477403.2438
 3399.543234 5743.833949 477417.3465
 1161.353073 5927.820413 477425.7885
 -1161.353075 5927.820393 477425.7885
 -3399.54323 5743.833966 477417.3465
 -5385.820953 5385.820943 477403.2438
 -6625.513343 5126.819415 477390.5001
 0 0 -0
 8543.318921 2096.629277 477382.9565
 7347.104474 3002.932793 477398.0244
 5743.83394 3399.543241 477417.3465
 3643.514976 3643.514977 477436.1956
 1247.394607 3762.722276 477447.5439
 -1247.394606 3762.722306 477447.5439
 -3643.514978 3643.514951 477436.1956
 -5743.833939 3399.543259 477417.3465
 -7347.104473 3002.932783 477398.0244
 -8543.318921 2096.62928 477382.9565
 8599.996598 813.3278661 477385.8501
 7592.268083 1021.832239 477402.5394
 5927.820416 1161.353074 477425.7885
 3762.722264 1247.394619 477447.5439
 1288.915167 1288.915165 477460.5206
 -1288.915167 1288.915129 477460.5206
 -3762.722264 1247.39465 477447.5439
 -5927.820414 1161.353052 477425.7885
 -7592.268085 1021.832252 477402.5394
 -8599.996597 813.3278621 477385.8501
 8599.996589 -813.3278556 477385.8501
 7592.268109 -1021.832228 477402.5394
 5927.820377 -1161.353064 477425.7885
 3762.72231 -1247.394608 477447.5439
 1288.915117 -1288.915155 477460.5206
 -1288.915118 -1288.915117 477460.5206
 -3762.722308 -1247.394641 477447.5439
 -5927.820381 -1161.35304 477425.7885
 -7592.268105 -1021.832242 477402.5394
 -8599.996591 -813.3278514 477385.8501
 8543.318926 -2096.629267 477382.9565
 7347.104454 -3002.932781 477398.0244
 5743.833972 -3399.543231 477417.3465
 3643.514936 -3643.514966 477436.1956
 1247.394651 -3762.722264 477447.5439
 -1247.394651 -3762.722298 477447.5439
 -3643.514938 -3643.514937 477436.1956
 -5743.833969 -3399.543251 477417.3465
 -7347.104457 -3002.93277 477398.0244
 -8543.318925 -2096.62927 477382.9565
 0 0 0
 6625.513353 -5126.819401 477390.5001
 5385.820929 -5385.820943 477403.2438
 3399.543262 -5743.833938 477417.3465
 1161.35304 -5927.820404 477425.7885
 -1161.35304 -5927.820379 477425.7885
 -3399.543262 -5743.83396 477417.3465
 -5385.820931 -5385.820929 477403.2438
 -6625.513352 -5126.819406 477390.5001
 0 0 -0
 0 0 0
 6336.170145 -6336.170142 477379.9087
 5126.819414 -6625.513339 477390.5001
 3002.932772 -7347.104466 477398.0244
 1021.832252 -7592.268082 477402.5394
 -1021.832252 -7592.268097 477402.5394
 -3002.932772 -7347.104454 477398.0244
 -5126.819413 -6625.513345 477390.5001
 -6336.170145 -6336.17014 477379.9087
 0 0 -0
 0 0 0
 0 0 0
 0 0 0
 2096.629276 -8543.318916 477382.9565
 813.3278549 -8599.996591 477385.8501
 -813.3278549 -8599.996586 477385.8501
 -2096.629276 -8543.318919 477382.9565
 0 0 -0
 0 0 -0
 0 0 -0
 0 0 0
 0 0 0
 0 0 0
 1596.883181 6516.397771 477416.8596
 619.2864574 6557.277163 477418.5689
 -619.2864568 6557.277166 477418.5689
 -1596.883182 6516.397769 477416.8596
 0 0 -0
 0 0 -0
 0 0 -0
 0 0 0
 4834.550141 4834.550136 477415.0454
 3907.481113 5049.233041 477421.3109
 2286.095182 5596.13747 477425.7307
 777.4106455 5780.357417 477428.3762
 -777.4106475 5780.357405 477428.3762
 -2286.095178 5596.137479 477425.7307
 -3907.481116 5049.233037 477421.3109
 -4834.55014 4834.550137 477415.0454
 0 0 -0
 0 0 0
 5049.233043 3907.481113 477421.3109
 4099.899072 4099.899062 477428.7936
 2585.03773 4368.545988 477437.0165
 882.5656666 4506.297498 477441.9186
 -882.5656639 4506.297515 477441.9186
 -2585.037736 4368.545974 477437.0165
 -4099.899067 4099.899071 477428.7936
 -5049.233045 3907.481109 477421.3109
 0 0 -0
 6516.397775 1596.883179 477416.8596
 5596.137475 2286.095172 477425.7307
 4368.54599 2585.037734 477437.0165
 2768.082412 2768.082406 477447.9519
 947.1481128 2857.329258 477454.5108
 -947.1481154 2857.329239 477454.5108
 -2768.082406 2768.082422 477447.9519
 -4368.545995 2585.037722 477437.0165
 -5596.137473 2286.095178 477425.7307
 -6516.397775 1596.883178 477416.8596
 6557.277165 619.2864512 477418.5689
 5780.357424 777.410648 477428.3762
 4506.297497 882.565657 477441.9186
 2857.329268 947.148109 477454.5108
 978.2532346 978.25324 477461.9957
 -978.2532328 978.2532591 477461.9957
 -2857.329272 947.1480925 477454.5108
 -4506.297494 882.565669 477441.9186
 -5780.357425 777.4106411 477428.3762
 -6557.277165 619.2864533 477418.5689
 6557.277173 -619.2864591 477418.5689
 5780.357402 -777.4106546 477428.3762
 4506.29753 -882.5656663 477441.9186
 2857.329227 -947.1481147 477454.5108
 978.2532817 -978.2532494 477461.9957
 -978.253283 -978.2532655 477461.9957
 -2857.329225 -947.1481008 477454.5108
 -4506.297532 -882.5656765 477441.9186
 -5780.357402 -777.4106487 477428.3762
 -6557.277172 -619.2864609 477418.5689
 6516.397771 -1596.883186 477416.8596
 5596.137492 -2286.095182 477425.7307
 4368.545963 -2585.037737 477437.0165
 2768.082447 -2768.082418 477447.9519
 947.1480713 -2857.329262 477454.5108
 -947.1480702 -2857.32925 477454.5108
 -2768.082449 -2768.082428 477447.9519
 -4368.545961 -2585.03773 477437.0165
 -5596.137492 -2286.095186 477425.7307
 -6516.397771 -1596.883185 477416.8596
 0 0 0
 5049.233036 -3907.481119 477421.3109
 4099.899089 -4099.899074 477428.7936
 2585.037705 -4368.54599 477437.0165
 882.5656982 -4506.297511 477441.9186
 -882.5656993 -4506.297518 477441.9186
 -2585.037703 -4368.545984 477437.0165
 -4099.899091 -4099.899078 477428.7936
 -5049.233035 -3907.481117 477421.3109
 0 0 -0
 0 0 0
 4834.550143 -4834.550144 477415.0454
 3907.481107 -5049.233047 477421.3109
 2286.095196 -5596.137482 477425.7307
 777.4106265 -5780.35742 477428.3762
 -777.4106257 -5780.357416 477428.3762
 -2286.095197 -5596.137485 477425.7307
 -3907.481106 -5049.233045 477421.3109
 -4834.550143 -4834.550145 477415.0454
 0 0 -0
 0 0 0
 0 0 0
 0 0 0
 1596.883178 -6516.397778 477416.8596
 619.2864635 -6557.277172 477418.5689
 -619.2864638 -6557.277173 477418.5689
 -1596.883177 -6516.397777 477416.8596
 0 0 -0
 0 0 -0
 0 0 -0
 0 0 0
 0 0 0
 0 0 0
 1220.623272 4984.15035 477436.4247
 473.2225633 5013.792846 477437.4401
 -473.2225639 5013.792843 477437.4401
 -1220.623271 4984.150351 477436.4247
 0 0 -0
 0 0 -0
 0 0 -0
 0 0 0
 3699.082325 3699.082314 477435.341
 2986.595122 3859.000065 477439.0638
 1745.682761 4274.489674 477441.6746
 593.3018536 4413.191266 477443.2354
 -593.3018516 4413.191275 477443.2354
 -1745.682765 4274.489667 477441.6746
 -2986.595119 3859.000068 477439.0638
 -3699.082326 3699.082313 477435.341
 0 0 -0
 0 0 0
 3859.00008 2986.595104 477439.0638
 3129.849048 3129.849044 477443.4829
 1971.207529 3331.641487 477448.3069
 672.5667447 3434.76858 477451.1717
 -672.5667476 3434.768569 477451.1717
 -1971.207522 3331.641495 477448.3069
 -3129.849055 3129.849038 477443.4829
 -3859.000078 2986.595106 477439.0638
 0 0 -0
 4984.150363 1220.623257 477436.4247
 4274.489684 1745.682757 477441.6746
 3331.641504 1971.207505 477448.3069
 2108.445191 2108.445182 477454.6892
 720.9600835 2175.11904 477458.5012
 -720.9600804 2175.119046 477458.5012
 -2108.445198 2108.445177 477454.6892
 -3331.641497 1971.207509 477448.3069
 -4274.489688 1745.682755 477441.6746
 -4984.150362 1220.623257 477436.4247
 5013.792859 473.2225542 477437.4401
 4413.191277 593.3018319 477443.2354
 3434.768596 672.5667403 477451.1717
 2175.119045 720.9600713 477458.5012
 744.1857199 744.1856918 477462.8401
 -744.1857226 744.1856935 477462.8401
 -2175.119038 720.9600701 477458.5012
 -3434.768602 672.5667409 477451.1717
 -4413.191273 593.3018316 477443.2354
 -5013.79286 473.2225543 477437.4401
 5013.792853 -473.222579 477437.4401
 4413.191294 -593.3018589 477443.2354
 3434.768569 -672.5667627 477451.1717
 2175.119081 -720.9601007 477458.5012
 744.1856757 -744.1857132 477462.8401
 -744.1856733 -744.1857226 477462.8401
 -2175.119086 -720.9600928 477458.5012
 -3434.768563 -672.5667681 477451.1717
 -4413.191297 -593.3018561 477443.2354
 -5013.792853 -473.2225798 477437.4401
 4984.150366 -1220.623283 477436.4247
 4274.489671 -1745.682779 477441.6746
 3331.641526 -1971.207538 477448.3069
 2108.44516 -2108.445198 477454.6892
 720.9601224 -2175.119076 477458.5012
 -720.9601246 -2175.119063 477458.5012
 -2108.445155 -2108.445209 477454.6892
 -3331.641531 -1971.20753 477448.3069
 -4274.489669 -1745.682782 477441.6746
 -4984.150367 -1220.623282 477436.4247
 0 0 0
 3859.000086 -2986.595133 477439.0638
 3129.849034 -3129.849062 477443.4829
 1971.207551 -3331.641523 477448.3069
 672.5667152 -3434.768593 477451.1717
 -672.5667132 -3434.768606 477451.1717
 -1971.207555 -3331.641512 477448.3069
 -3129.849031 -3129.849068 477443.4829
 -3859.000088 -2986.59513 477439.0638
 0 0 -0
 0 0 0
 3699.082323 -3699.082338 477435.341
 2986.595127 -3859.000094 477439.0638
 1745.682749 -4274.489692 477441.6746
 593.3018714 -4413.191301 477443.2354
 -593.3018727 -4413.191292 477443.2354
 -1745.682746 -4274.489699 477441.6746
 -2986.595129 -3859.000091 477439.0638
 -3699.082322 -3699.082339 477435.341
 0 0 -0
 0 0 0
 0 0 0
 0 0 0
 1220.623275 -4984.150377 477436.4247
 473.2225577 -5013.792868 477437.4401
 -473.2225573 -5013.792871 477437.4401
 -1220.623276 -4984.150375 477436.4247
 0 0 -0
 0 0 -0
 0 0 -0
 0 0 0
 0 0 0
 0 0 0
 939.0089616 3834.192604 477447.6815
 363.9284631 3855.89988 477448.2913
 -363.9284626 3855.899883 477448.2913
 -939.0089623 3834.192602 477447.6815
 0 0 -0
 0 0 -0
 0 0 -0
 0 0 0
 2846.666421 2846.666399 477447.0277
 2296.131185 2966.711329 477449.2619
 1341.119114 3284.193941 477450.8213
 455.5851621 3389.264146 477451.7532
 -455.5851635 3389.264138 477451.7532
 -1341.119111 3284.193947 477450.8213
 -2296.131187 2966.711326 477449.2619
 -2846.66642 2846.666399 477447.0277
 0 0 -0
 0 0 0
 2966.711346 2296.131168 477449.2619