# ODT 1.0
# Table Start
# Title: mmArchive Data Table, Mon Dec 12 01:15:04 EET 2022
# Columns: {Oxs_CGEvolve:minEvolver:Max mxHxm} {Oxs_CGEvolve:minEvolver:Total energy} {Oxs_CGEvolve:minEvolver:Delta E} {Oxs_CGEvolve:minEvolver:Bracket count} {Oxs_CGEvolve:minEvolver:Line min count} {Oxs_CGEvolve:minEvolver:Conjugate cycle count} {Oxs_CGEvolve:minEvolver:Cycle count} {Oxs_CGEvolve:minEvolver:Cycle sub count} {Oxs_CGEvolve:minEvolver:Energy calc count} Oxs_UZeeman:AppliedFiled:Energy Oxs_UZeeman:AppliedFiled:B Oxs_UZeeman:AppliedFiled:Bx Oxs_UZeeman:AppliedFiled:By Oxs_UZeeman:AppliedFiled:Bz Oxs_UniformExchange:Ni:Energy {Oxs_UniformExchange:Ni:Max Spin Ang} {Oxs_UniformExchange:Ni:Stage Max Spin Ang} {Oxs_UniformExchange:Ni:Run Max Spin Ang} Oxs_Demag::Energy    Oxs_MinDriver::Iteration {Oxs_MinDriver::Stage iteration} Oxs_MinDriver::Stage Oxs_MinDriver::mx    Oxs_MinDriver::my    Oxs_MinDriver::mz   
# Units:                   A/m                                   J                                    J                                   {}                                       {}                                          {}                                         {}                                      {}                                         {}                                     J                            mT                         mT                          mT                          mT                            J                                deg                                      deg                                        deg                            J                       {}                           {}                         {}                 {}                   {}                   {}           
                   0.087170149429159918                   1.5700560061009121e-18                 0                                    483                                      345                                         72                                         431                                     214                                        829                                   0                             0                          0                           0                           0                            4.3490940381795644e-19               9.6817175601891332                       180                                        180                             1.1351466022829556e-18    788                          788                        0                    1.1698169713832785e-13 -0.20155806151525926  3.0985545352549896e-13
                   0.082601752168433018                  -2.3183650422707665e-18                 0                                    817                                      608                                         88                                         729                                     143                                        1427                                 -2.688675160765562e-18           100                        0                           0                           100                          5.2794280788274972e-21               1.2200352864462753                       12.608690822892338                         180                             3.6503069041596779e-19    1346                         557                        1                   -5.9559084213212077e-14  3.7750835717589811e-09  0.99985047389964787
                   0.093431163979002863                  -5.0070631528224776e-18                 0                                    856                                      646                                         89                                         767                                     37                                         1505                                 -5.3774394715633058e-18           200                        0                           0                           200                          4.7185950358928912e-21               1.1511797984476357                       1.2200352864462753                         180                             3.6565772370493587e-19    1422                         75                         2                   -1.0107691218517127e-14  5.4620297336296382e-10  0.99986705022378453
                   0.099372503661644684                  -7.6958021555375115e-18                 0                                    894                                      683                                         90                                         804                                     36                                         1581                                 -8.0662716597472923e-18           300                        0                           0                           300                          4.2449203006005156e-21               1.0896192284636055                       1.1511797984476357                         180                             3.6622458390917934e-19    1496                         73                         3                   -1.2606565001018146e-15  4.8453831592953461e-11  0.99988098962777083
                   0.094059833302051324                  -1.0384575711459768e-17                 0                                    932                                      719                                         91                                         841                                     36                                         1656                                 -1.0755156196295351e-17           400                        0                           0                           400                          3.8410190632570864e-21               1.0342390949172142                       1.0896192284636055                         180                             3.6673946577232596e-19    1569                         72                         4                   -1.4038995255922803e-16  1.5000145569270132e-12  0.99989282608880858
                   0.097946411674652942                  -1.3073378734377814e-17                -1.5407439555097887e-33                  969                                      754                                         92                                         877                                     35                                         1729                                 -1.3444081560316132e-17           499.99999999999994         0                           0                           500                          3.4936640491002385e-21               0.98414361412077844                      1.0342390949172142                         180                             3.6720916188921938e-19    1640                         70                         5                   -1.505405553393863e-17 -1.9298759405124242e-13  0.99990296450688876
                   0.082055103938878549                  -1.5762207094870066e-17                 0                                    1005                                     789                                         93                                         912                                     34                                         1801                                 -1.6133039081002977e-17           600                        0                           0                           600                          3.1926419791365676e-21               0.93860355359763548                      0.98414361412077844                        180                             3.6763934415377292e-19    1710                         69                         6                    6.0381746092858656e-18 -3.5512571508414286e-14  0.99991171649444133
# Table End
#
# Table Start
# Title: mmArchive Data Table, Mon Dec 12 01:15:15 EET 2022
# Columns: {Oxs_CGEvolve:minEvolver:Max mxHxm} {Oxs_CGEvolve:minEvolver:Total energy} {Oxs_CGEvolve:minEvolver:Delta E} {Oxs_CGEvolve:minEvolver:Bracket count} {Oxs_CGEvolve:minEvolver:Line min count} {Oxs_CGEvolve:minEvolver:Conjugate cycle count} {Oxs_CGEvolve:minEvolver:Cycle count} {Oxs_CGEvolve:minEvolver:Cycle sub count} {Oxs_CGEvolve:minEvolver:Energy calc count} Oxs_UZeeman:AppliedFiled:Energy Oxs_UZeeman:AppliedFiled:B Oxs_UZeeman:AppliedFiled:Bx Oxs_UZeeman:AppliedFiled:By Oxs_UZeeman:AppliedFiled:Bz Oxs_UniformExchange:Ni:Energy {Oxs_UniformExchange:Ni:Max Spin Ang} {Oxs_UniformExchange:Ni:Stage Max Spin Ang} {Oxs_UniformExchange:Ni:Run Max Spin Ang} Oxs_Demag::Energy    Oxs_MinDriver::Iteration {Oxs_MinDriver::Stage iteration} Oxs_MinDriver::Stage Oxs_MinDriver::mx    Oxs_MinDriver::my    Oxs_MinDriver::mz   
# Units:                   A/m                                   J                                    J                                   {}                                       {}                                          {}                                         {}                                      {}                                         {}                                     J                            mT                         mT                          mT                          mT                            J                                deg                                      deg                                        deg                            J                       {}                           {}                         {}                 {}                   {}                   {}           
                   0.098820143523022985                   1.57005600610091e-18                -1.9259299443872359e-34                  478                                      354                                         72                                         436                                     220                                        833                                   0                             0                          0                           0                           0                            4.3490942156265383e-19               9.6817177472826188                       180                                        180                             1.1351465845382562e-18    803                          803                        0                    1.0075083053082514e-13 -0.2015580395434883   2.622617693511577e-13
                   0.091412536745088827                  -2.3183650422707658e-18                 0                                    827                                      606                                         89                                         738                                     141                                        1435                                 -2.6886751606864621e-18           100                        0                           0                           100                          5.2794289318682522e-21               1.2200354290891293                       12.526257148843142                         180                             3.6503068948382814e-19    1356                         552                        1                   -1.1238605366866039e-13  4.5860319720543366e-09  0.99985047387023285
                   0.095535791874926612                  -5.0070631528224768e-18                 7.7037197775489434e-34                  866                                      644                                         90                                         776                                     37                                         1513                                 -5.3774394715633058e-18           200                        0                           0                           200                          4.7185950359038818e-21               1.151179791896358                        1.2200354290891293                         180                             3.6565772370492417e-19    1432                         75                         2                   -2.3071720154143398e-14  6.6595872751451951e-10  0.99986705022378419
                   0.064844849036228711                  -7.6958021555375115e-18                 1.5407439555097887e-33                  905                                      682                                         91                                         814                                     37                                         1591                                 -8.0662716597472014e-18           300                        0                           0                           300                          4.2449203032361583e-21               1.0896191783827671                       1.151179791896358                          180                             3.6622458390645212e-19    1508                         75                         3                   -3.312357673269046e-15  5.8513114062506253e-11  0.99988098962776006
                   0.099510477716619666                  -1.0384575711459768e-17                 0                                    942                                      718                                         92                                         850                                     35                                         1665                                 -1.0755156196295451e-17           400                        0                           0                           400                          3.8410190608795831e-21               1.034239181730557                        1.0896191783827671                         180                             3.6673946577480395e-19    1580                         71                         4                   -4.1558026178582208e-16  2.5770853915649413e-12  0.99989282608881802
                   0.083821757844982067                  -1.3073378734377812e-17                 0                                    979                                      754                                         93                                         886                                     35                                         1739                                 -1.3444081560316158e-17           499.99999999999994         0                           0                           500                          3.4936640487178557e-21               0.98414361826127661                      1.034239181730557                          180                             3.6720916188962778e-19    1652                         71                         5                   -5.3953656702315114e-17 -1.4135053150951237e-13  0.99990296450689087
                   0.07563182721840811                  -1.5762207094870066e-17                 0                                    1015                                     789                                         94                                         921                                     34                                         1811                                 -1.6133039081002977e-17           600                        0                           0                           600                          3.1926419791233103e-21               0.93860355300308407                      0.98414361826127661                        180                             3.6763934415378544e-19    1722                         69                         6                   -2.4100139338381748e-17 -3.4820264057268487e-14  0.99991171649444122
# Table End
#
# Table Start
# Title: mmArchive Data Table, Mon Dec 12 01:15:26 EET 2022
# Columns: {Oxs_CGEvolve:minEvolver:Max mxHxm} {Oxs_CGEvolve:minEvolver:Total energy} {Oxs_CGEvolve:minEvolver:Delta E} {Oxs_CGEvolve:minEvolver:Bracket count} {Oxs_CGEvolve:minEvolver:Line min count} {Oxs_CGEvolve:minEvolver:Conjugate cycle count} {Oxs_CGEvolve:minEvolver:Cycle count} {Oxs_CGEvolve:minEvolver:Cycle sub count} {Oxs_CGEvolve:minEvolver:Energy calc count} Oxs_UZeeman:AppliedFiled:Energy Oxs_UZeeman:AppliedFiled:B Oxs_UZeeman:AppliedFiled:Bx Oxs_UZeeman:AppliedFiled:By Oxs_UZeeman:AppliedFiled:Bz Oxs_UniformExchange:Ni:Energy {Oxs_UniformExchange:Ni:Max Spin Ang} {Oxs_UniformExchange:Ni:Stage Max Spin Ang} {Oxs_UniformExchange:Ni:Run Max Spin Ang} Oxs_Demag::Energy    Oxs_MinDriver::Iteration {Oxs_MinDriver::Stage iteration} Oxs_MinDriver::Stage Oxs_MinDriver::mx    Oxs_MinDriver::my    Oxs_MinDriver::mz   
# Units:                   A/m                                   J                                    J                                   {}                                       {}                                          {}                                         {}                                      {}                                         {}                                     J                            mT                         mT                          mT                          mT                            J                                deg                                      deg                                        deg                            J                       {}                           {}                         {}                 {}                   {}                   {}           
                   0.096683339707594962                   1.5700560061009163e-18                -1.9259299443872359e-34                  474                                      352                                         72                                         430                                     214                                        827                                   0                             0                          0                           0                           0                            4.3490940106484536e-19               9.6817176367797959                       180                                        180                             1.1351466050360712e-18    793                          793                        0                    1.183522371265972e-13 -0.20155806296236137  3.0187588650670105e-13
                   0.090530181862854553                  -2.3183650422707658e-18                 0                                    813                                      613                                         90                                         731                                     135                                        1428                                 -2.6886751607003149e-18           100                        0                           0                           100                          5.2794288824492366e-21               1.2200353220098092                       11.800090991750523                         180                             3.6503068954709951e-19    1356                         562                        1                   -7.3203372671235777e-13 -6.495529703309235e-09  0.99985047387538417
                   0.099051927697806075                  -5.0070631528224768e-18                 0                                    852                                      651                                         91                                         769                                     37                                         1506                                 -5.3774394715633042e-18           200                        0                           0                           200                          4.7185950359494331e-21               1.1511797913862507                       1.2200353220098092                         180                             3.6565772370487747e-19    1432                         75                         2                   -1.896009841030795e-13 -1.8814563381421727e-09  0.99986705022378397
                   0.097066926287304844                  -7.6958021555375115e-18                 0                                    891                                      688                                         92                                         807                                     37                                         1583                                 -8.0662716597471799e-18           300                        0                           0                           300                          4.2449203038308885e-21               1.0896191671627922                       1.1511797913862507                         180                             3.6622458390583631e-19    1507                         74                         3                   -3.4578762845119226e-14 -3.6680722332336419e-10  0.99988098962775718
                   0.098733064820968441                  -1.0384575711459768e-17                 0                                    929                                      724                                         93                                         844                                     36                                         1658                                 -1.0755156196295348e-17           400                        0                           0                           400                          3.8410190633367733e-21               1.0342390904937211                       1.0896191671627922                         180                             3.6673946577224276e-19    1580                         72                         4                   -4.7502819436195534e-15 -5.2677942035553328e-11  0.99989282608880858
                   0.089424244416363499                  -1.3073378734377812e-17                 0                                    966                                      759                                         94                                         880                                     35                                         1731                                 -1.3444081560316137e-17           499.99999999999994         0                           0                           500                          3.493664049042751e-21               0.9841436180978399                       1.0342390904937211                         180                             3.6720916188928039e-19    1651                         70                         5                   -5.3535182781421403e-16 -5.7548394071946447e-12  0.99990296450688909
                   0.082645218502034407                  -1.5762207094870066e-17                 0                                    1002                                     794                                         95                                         915                                     34                                         1803                                 -1.6133039081002974e-17           600                        0                           0                           600                          3.1926419791321418e-21               0.93860355120912875                      0.9841436180978399                         180                             3.6763934415377572e-19    1721                         69                         6                   -3.5376974698762885e-17 -4.9910328810601364e-13  0.99991171649444122
# Table End
