# OOMMF OVF 2.0
#
# Segment count: 1
#
# Begin: Segment
# Begin: Header
#
# Title: Oxs_MinDriver::Magnetization
# Desc: Oxs vector field output
# Desc:  MIF source file: F:/Bogdan/UNIC/2022/Master_degree/Simulation_samples/Cylinder0_5000 1.mif
# Desc:  Iteration: 1356, State id: 10310
# Desc:  Stage: 1, Stage iteration: 562
# Desc:  Stage simulation time: 0 s
# Desc:  Total simulation time: -2 s
# meshunit: m
# meshtype: rectangular
# xbase: -8.9999999999999995e-09
# ybase: -8.9999999999999995e-09
# zbase: -8.6999999999999998e-08
# xnodes: 10
# ynodes: 10
# znodes: 88
# xstepsize: 2.0000000000000001e-09
# ystepsize: 2.0000000000000001e-09
# zstepsize: 2.0000000000000001e-09
# xmin: -1e-08
# ymin: -1e-08
# zmin: -8.7999999999999994e-08
# xmax: 1e-08
# ymax: 1e-08
# zmax: 8.800000000000002e-08
# valuedim: 3
# valuelabels: Magnetization_x Magnetization_y Magnetization_z
# valueunits: A/m A/m A/m
#
# End: Header
#
# Begin: Data Text
 0 0 0
 0 0 0
 0 0 0
 9624.236731 36834.60836 475943.754
 3641.070379 37101.95888 476006.364
 -3641.070376 37101.95891 476006.364
 -9624.236732 36834.60836 475943.754
 0 0 -0
 0 0 -0
 0 0 -0
 0 0 0
 27323.35067 27323.34097 475897.8261
 21800.09379 28529.07519 476112.0867
 12882.16521 31100.47536 476275.8461
 4358.980988 31837.09453 476381.4333
 -4358.980993 31837.09449 476381.4333
 -12882.16519 31100.47538 476275.8461
 -21800.0938 28529.07518 476112.0867
 -27323.35067 27323.34096 475897.8261
 0 0 -0
 0 0 0
 28529.08529 21800.08446 476112.0865
 22585.86667 22585.85719 476394.4049
 14048.74965 23654.76468 476670.6998
 4759.827031 24145.88529 476829.3107
 -4759.827025 24145.88535 476829.3107
 -14048.74966 23654.76465 476670.6998
 -22585.86666 22585.85719 476394.4049
 -28529.08529 21800.08446 476112.0865
 0 0 -0
 36834.6206 9624.229485 475943.7532
 31100.48658 12882.15741 476275.8455
 23654.77488 14048.74151 476670.6995
 14705.25297 14705.2448 477010.8831
 4982.463295 15003.84841 477202.1908
 -4982.4633 15003.84836 477202.1908
 -14705.25296 14705.24482 477010.8831
 -23654.77488 14048.74151 476670.6995
 -31100.48658 12882.15741 476275.8455
 -36834.6206 9624.229481 475943.7532
 37101.97157 3641.063953 476006.363
 31837.10613 4358.97406 476381.4326
 24145.8954 4759.820367 476829.3103
 15003.85617 4982.456672 477202.1906
 5083.37526 5083.369235 477409.8763
 -5083.375252 5083.369253 477409.8763
 -15003.85618 4982.456673 477202.1906
 -24145.8954 4759.820362 476829.3103
 -31837.10613 4358.974061 476381.4326
 -37101.97157 3641.063944 476006.363
 37101.97159 -3641.075795 476006.3629
 31837.10622 -4358.986361 476381.4325
 24145.89553 -4759.832687 476829.3101
 15003.85626 -4982.469105 477202.1905
 5083.375501 -5083.38086 477409.8761
 -5083.375509 -5083.380829 477409.8761
 -15003.85624 -4982.469137 477202.1905
 -24145.89555 -4759.832668 476829.3101
 -31837.10621 -4358.986373 476381.4325
 -37101.97158 -3641.075796 476006.3629
 36834.62086 -9624.240898 475943.753
 31100.4869 -12882.16952 476275.8452
 23654.77529 -14048.7539 476670.6991
 14705.25338 -14705.25724 477010.8827
 4982.463395 -15003.86056 477202.1904
 -4982.463378 -15003.86062 477202.1904
 -14705.25341 -14705.25718 477010.8827
 -23654.77526 -14048.75393 476670.6991
 -31100.48692 -12882.16952 476275.8452
 -36834.62085 -9624.240894 475943.753
 0 0 0
 28529.08571 -21800.09698 476112.0859
 22585.86712 -22585.86962 476394.4042
 14048.75006 -23654.77805 476670.6991
 4759.827197 -24145.89844 476829.3101
 -4759.827212 -24145.89838 476829.3101
 -14048.75003 -23654.77808 476670.6991
 -22585.86716 -22585.8696 476394.4042
 -28529.0857 -21800.09698 476112.0859
 0 0 -0
 0 0 0
 27323.35102 -27323.35247 475897.8254
 21800.09422 -28529.08698 476112.0859
 12882.1655 -31100.48807 476275.8452
 4358.981019 -31837.10755 476381.4324
 -4358.981011 -31837.10757 476381.4324
 -12882.16552 -31100.48805 476275.8452
 -21800.0942 -28529.08699 476112.0859
 -27323.35102 -27323.35248 475897.8254
 0 0 -0
 0 0 0
 0 0 0
 0 0 0
 9624.236795 -36834.62133 475943.753
 3641.070359 -37101.97149 476006.363
 -3641.070357 -37101.97148 476006.363
 -9624.236787 -36834.62133 475943.753
 0 0 -0
 0 0 -0
 0 0 -0
 0 0 0
 0 0 0
 0 0 0
 8182.888881 32220.91627 476305.2846
 3156.156656 32464.67088 476348.5647
 -3156.156663 32464.67085 476348.5647
 -8182.888867 32220.91629 476305.2846
 0 0 -0
 0 0 -0
 0 0 -0
 0 0 0
 23865.03661 23865.02829 476269.6628
 19256.51426 24992.82295 476420.4202
 11351.76006 27549.70554 476533.3384
 3861.289273 28353.46046 476605.7522
 -3861.289257 28353.46054 476605.7522
 -11351.7601 27549.7055 476533.3384
 -19256.51424 24992.82295 476420.4202
 -23865.03661 23865.02829 476269.6628
 0 0 -0
 0 0 0
 24992.83114 19256.50686 476420.42
 20113.06045 20113.05316 476615.9892
 12602.64672 21241.47105 476824.7524
 4285.833512 21780.26789 476947.715
 -4285.833534 21780.26779 476947.715
 -12602.64668 21241.4711 476824.7524
 -20113.06047 20113.05315 476615.9892
 -24992.83113 19256.50685 476420.42
 0 0 -0
 32220.92613 8182.882671 476305.2841
 27549.71411 11351.75345 476533.338
 21241.47907 12602.64018 476824.7522
 13309.67667 13309.67013 477092.8384
 4525.55603 13634.10741 477247.841
 -4525.55601 13634.10748 477247.841
 -13309.67671 13309.6701 477092.8384
 -21241.47905 12602.64018 476824.7522
 -27549.71411 11351.75347 476533.338
 -32220.92614 8182.882664 476305.2841
 32464.68013 3156.150842 476348.5641
 28353.46894 3861.283515 476605.7517
 21780.2756 4285.827406 476947.7147
 13634.11454 4525.549739 477247.8409
 4634.640709 4634.634719 477419.0105
 -4634.640735 4634.634737 477419.0105
 -13634.11451 4525.549711 477247.8409
 -21780.27562 4285.82744 476947.7147
 -28353.46894 3861.283491 476605.7517
 -32464.68012 3156.150846 476348.5641
 32464.68007 -3156.161825 476348.5641
 28353.46899 -3861.294955 476605.7516
 21780.27565 -4285.838853 476947.7146
 13634.11456 -4525.561358 477247.8408
 4634.640917 -4634.645499 477419.0104
 -4634.640894 -4634.645612 477419.0104
 -13634.11462 -4525.561254 477247.8408
 -21780.27561 -4285.838917 476947.7146
 -28353.46901 -3861.294929 476605.7516
 -32464.68006 -3156.161834 476348.5641
 32220.92613 -8182.893262 476305.2839
 27549.71419 -11351.76465 476533.3377
 21241.47933 -12602.65186 476824.7519
 13309.67701 -13309.68143 477092.8381
 4525.556064 -13634.11892 477247.8407
 -4525.556102 -13634.11874 477247.8407
 -13309.67693 -13309.68157 477092.8381
 -21241.4794 -12602.65178 476824.7519
 -27549.71415 -11351.76467 476533.3377
 -32220.92613 -8182.893258 476305.2839
 0 0 0
 24992.83135 -19256.51843 476420.4196
 20113.06075 -20113.06457 476615.9887
 12602.64694 -21241.48343 476824.7518
 4285.833541 -21780.27972 476947.7145
 -4285.833505 -21780.27987 476947.7145
 -12602.64702 -21241.48332 476824.7518
 -20113.06068 -20113.06462 476615.9887
 -24992.83138 -19256.51842 476420.4196
 0 0 -0
 0 0 0
 23865.03671 -23865.03915 476269.6623
 19256.51438 -24992.83409 476420.4196
 11351.76013 -27549.71712 476533.3377
 3861.289322 -28353.47249 476605.7515
 -3861.289343 -28353.47242 476605.7515
 -11351.76009 -27549.71717 476533.3377
 -19256.51441 -24992.83407 476420.4196
 -23865.0367 -23865.03916 476269.6623
 0 0 -0
 0 0 0
 0 0 0
 0 0 0
 8182.88887 -32220.92815 476305.2838
 3156.156603 -32464.68235 476348.5639
 -3156.156597 -32464.68236 476348.5639
 -8182.888881 -32220.92814 476305.2838
 0 0 -0
 0 0 -0
 0 0 -0
 0 0 0
 0 0 0
 0 0 0
 6637.54499 26588.44209 476676.9021
 2573.630169 26793.30184 476704.6955
 -2573.630161 26793.30188 476704.6955
 -6637.545005 26588.44208 476676.9021
 0 0 -0
 0 0 -0
 0 0 -0
 0 0 0
 19687.47704 19687.47164 476651.5268
 15953.78483 20647.98189 476750.4682
 9389.177656 22871.49302 476823.4573
 3198.965508 23612.17736 476869.0627
 -3198.965531 23612.17726 476869.0627
 -9389.177604 22871.49307 476823.4573
 -15953.78485 20647.98188 476750.4682
 -19687.47703 19687.47164 476651.5268
 0 0 -0
 0 0 0
 20647.98722 15953.77929 476750.4681
 16750.22238 16750.217 476876.0128
 10552.34925 17803.73708 477015.2473
 3599.419384 18326.05836 477098.5968
 -3599.419352 18326.05846 477098.5968
 -10552.34931 17803.73703 477015.2473
 -16750.22234 16750.217 476876.0128
 -20647.98722 15953.77929 476750.4681
 0 0 -0
 26588.44798 6637.540333 476676.9019
 22871.49862 9389.17278 476823.4571
 17803.74261 10552.34413 477015.2472
 11235.94498 11235.9394 477199.5165
 3834.346766 11557.66771 477308.694
 -3834.346796 11557.66767 477308.694
 -11235.94492 11235.93941 477199.5165
 -17803.74263 10552.34414 477015.2472
 -22871.49863 9389.172758 476823.4571
 -26588.44798 6637.54033 476676.9019
 26793.30699 2573.625235 476704.6952
 23612.18279 3198.960613 476869.0625
 18326.06411 3599.414402 477098.5966
 11557.67314 3834.341643 477308.6939
 3943.486638 3943.481618 477431.4288
 -3943.486611 3943.481564 477431.4288
 -11557.6732 3834.341695 477308.6939
 -18326.06409 3599.414361 477098.5966
 -23612.18278 3198.960634 476869.0625
 -26793.30699 2573.625223 476704.6952
 26793.30688 -2573.634888 476704.6952
 23612.18278 -3198.970572 476869.0624
 18326.06394 -3599.424521 477098.5965
 11557.67339 -3834.351624 477308.6939
 3943.486521 -3943.49112 477431.4287
 -3943.486553 -3943.490976 477431.4287
 -11557.67333 -3834.351739 477308.6939
 -18326.06397 -3599.42445 477098.5965
 -23612.18278 -3198.970603 476869.0624
 -26793.30687 -2573.634881 476704.6952
 26588.44782 -6637.549761 476676.9018
 22871.49853 -9389.182606 476823.457
 17803.74283 -10552.35425 477015.247
 11235.94493 -11235.94947 477199.5162
 3834.346919 -11557.67742 477308.6938
 -3834.346881 -11557.67761 477308.6938
 -11235.94501 -11235.94933 477199.5162
 -17803.74277 -10552.35433 477015.247
 -22871.49855 -9389.182593 476823.457
 -26588.44782 -6637.549767 476676.9018
 0 0 0
 20647.98731 -15953.7892 476750.4678
 16750.22236 -16750.22707 476876.0124
 10552.34951 -17803.74731 477015.2469
 3599.419329 -18326.06851 477098.5964
 -3599.419367 -18326.06837 477098.5964
 -10552.34942 -17803.74741 477015.2469
 -16750.22242 -16750.22704 476876.0124
 -20647.98729 -15953.78921 476750.4678
 0 0 -0
 0 0 0
 19687.47706 -19687.48127 476651.5264
 15953.78487 -20647.99171 476750.4677
 9389.177542 -22871.50301 476823.4568
 3198.965631 -23612.18725 476869.0622
 -3198.9656 -23612.18731 476869.0622
 -9389.177593 -22871.50296 476823.4568
 -15953.78484 -20647.99173 476750.4677
 -19687.47707 -19687.48127 476651.5264
 0 0 -0
 0 0 0
 0 0 0
 0 0 0
 6637.545055 -26588.45209 476676.9016
 2573.630068 -26793.31157 476704.6949
 -2573.630078 -26793.31156 476704.6949
 -6637.545045 -26588.4521 476676.9016
 0 0 -0
 0 0 -0
 0 0 -0
 0 0 0
 0 0 0
 0 0 0
 5246.284738 21227.96022 476963.019
 2036.455442 21389.00797 476980.3292
 -2036.455452 21389.00794 476980.3292
 -5246.284727 21227.96024 476963.019
 0 0 -0
 0 0 -0
 0 0 -0
 0 0 0
 15719.96678 15719.96433 476946.157
 12750.95566 16487.95973 477008.8381
 7492.506354 18296.07729 477054.4908
 2552.95909 18913.05207 477082.4354
 -2552.959069 18913.05215 477082.4354
 -7492.506394 18296.07723 477054.4908
 -12750.95564 16487.95975 477008.8381
 -15719.96679 15719.96432 476946.157
 0 0 -0
 0 0 0
 16487.96237 12750.95268 477008.8381
 13416.21708 13416.21361 477086.8701
 8473.342044 14307.11432 477174.3709
 2894.803328 14758.89847 477227.0595
 -2894.803346 14758.89839 477227.0595
 -8473.342003 14307.11437 477174.3709
 -13416.21709 13416.21358 477086.8701
 -16487.96238 12750.95269 477008.8381
 0 0 -0
 21227.96218 5246.281543 476963.019
 18296.07995 7492.5027 477054.4908
 14307.11743 8473.338404 477174.3709
 9066.948671 9066.945029 477291.7894
 3101.444995 9352.266246 477362.323
 -3101.444971 9352.266257 477362.323
 -9066.948703 9066.945021 477291.7894
 -14307.11743 8473.338409 477174.3709
 -18296.07992 7492.502693 477054.4908
 -21227.96219 5246.281543 476963.019
 21389.00986 2036.451425 476980.3292
 18913.05491 2552.955568 477082.4353
 14758.90142 2894.799489 477227.0594
 9352.270042 3101.441244 477362.323
 3199.384958 3199.381631 477442.5611
 -3199.384974 3199.381682 477442.5611
 -9352.270017 3101.441205 477362.323
 -14758.9014 2894.799496 477227.0594
 -18913.05496 2552.955569 477082.4353
 -21389.00983 2036.451424 476980.3292
 21389.00984 -2036.459367 476980.3291
 18913.05485 -2552.963629 477082.4353
 14758.90164 -2894.807637 477227.0594
 9352.26989 -3101.449093 477362.3229
 3199.385137 -3199.38928 477442.5611
 -3199.385123 -3199.389378 477442.5611
 -9352.269896 -3101.449035 477362.3229
 -14758.90166 -2894.807663 477227.0594
 -18913.0548 -2552.963621 477082.4353
 -21389.00987 -2036.459369 476980.3291
 21227.96215 -5246.289583 476963.0189
 18296.08011 -7492.51084 477054.4906
 14307.11742 -8473.346501 477174.3707
 9066.949015 -9066.953061 477291.7893
 3101.444902 -9352.274085 477362.3229
 -3101.444918 -9352.273989 477362.3229
 -9066.94899 -9066.953119 477291.7893
 -14307.1174 -8473.346488 477174.3707
 -18296.08014 -7492.510844 477054.4906
 -21227.96214 -5246.28958 476963.0189
 0 0 0
 16487.96263 -12750.96059 477008.8379
 13416.21745 -13416.22174 477086.8699
 8473.342054 -14307.12213 477174.3707
 2894.803604 -14758.90601 477227.0593
 -2894.803573 -14758.90607 477227.0593
 -8473.342095 -14307.12209 477174.3707
 -13416.21744 -13416.22176 477086.8699
 -16487.96262 -12750.9606 477008.8379
 0 0 -0
 0 0 0
 15719.96732 -15719.97235 476946.1567
 12750.95593 -16487.96778 477008.8378
 7492.506662 -18296.0851 477054.4905
 2552.959038 -18913.05958 477082.4351
 -2552.959062 -18913.05956 477082.4351
 -7492.50663 -18296.08511 477054.4905
 -12750.95594 -16487.96778 477008.8378
 -15719.96731 -15719.97235 476946.1567
 0 0 -0
 0 0 0
 0 0 0
 0 0 0
 5246.284912 -21227.96796 476963.0187
 2036.455528 -21389.01548 476980.3289
 -2036.455515 -21389.01548 476980.3289
 -5246.284922 -21227.96796 476963.0187
 0 0 -0
 0 0 -0
 0 0 -0
 0 0 0
 0 0 0
 0 0 0
 4078.439432 16606.2263 477157.7002
 1583.331567 16727.48734 477168.2675
 -1583.331564 16727.48736 477168.2675
 -4078.439436 16606.22628 477157.7002
 0 0 -0
 0 0 -0
 0 0 -0
 0 0 0
 12300.07623 12300.07546 477147.0293
 9973.355882 12891.77422 477185.714
 5851.170691 14312.12156 477213.5772
 1992.777448 14799.71034 477230.4147
 -1992.777456 14799.71028 477230.4147
 -5851.170673 14312.12161 477213.5772
 -9973.35589 12891.77421 477185.714
 -12300.07622 12300.07547 477147.0293
 0 0 -0
 0 0 0
 12891.77494 9973.355206 477185.714
 10497.04568 10497.04432 477233.1667
 6633.77179 11207.35413 477286.3497
 2267.447755 11571.51602 477318.3738
 -2267.447745 11571.51606 477318.3738
 -6633.771791 11207.35409 477286.3497
 -10497.04569 10497.04437 477233.1667
 -12891.77493 9973.355187 477185.714
 0 0 -0
 16606.22576 4078.437389 477157.7003
 14312.12209 5851.168607 477213.5772
 11207.35463 6633.769968 477286.3497
 7114.448276 7114.446548 477357.9795
 2436.184962 7348.292287 477401.2347
 -2436.184957 7348.292288 477401.2347
 -7114.448291 7114.446543 477357.9795
 -11207.35458 6633.76994 477286.3497
 -14312.12215 5851.168638 477213.5772
 -16606.22574 4078.437386 477157.7003
 16727.48716 1583.329076 477168.2675
 14799.71032 1992.774801 477230.4147
 11571.51687 2267.445189 477318.3738
 7348.29409 2436.182422 477401.2347
 2517.165654 2517.162804 477450.7295
 -2517.16566 2517.162748 477450.7295
 -7348.294039 2436.182443 477401.2347
 -11571.51695 2267.445186 477318.3738
 -14799.71022 1992.774783 477230.4147
 -16727.4872 1583.329097 477168.2675
 16727.48729 -1583.335115 477168.2675
 14799.71051 -1992.780792 477230.4147
 11571.517 -2267.451135 477318.3738
 7348.294297 -2436.188015 477401.2347
 2517.165446 -2517.168698 477450.7294
 -2517.165425 -2517.16865 477450.7294
 -7348.294365 -2436.18805 477401.2347
 -11571.51689 -2267.451143 477318.3738
 -14799.71062 -1992.780786 477230.4147
 -16727.48724 -1583.335113 477168.2675
 16606.22604 -4078.44372 477157.7002
 14312.12239 -5851.174797 477213.5771
 11207.35509 -6633.775869 477286.3496
 7114.448359 -7114.452444 477357.9794
 2436.185269 -7348.298032 477401.2346
 -2436.185278 -7348.298069 477401.2346
 -7114.448317 -7114.452431 477357.9794
 -11207.35517 -6633.775876 477286.3496
 -14312.1223 -5851.174787 477213.5771
 -16606.22607 -4078.443714 477157.7002
 0 0 0
 12891.77562 -9973.360932 477185.7138
 10497.04615 -10497.05021 477233.1665
 6633.772288 -11207.35926 477286.3495
 2267.447699 -11571.52133 477318.3737
 -2267.447711 -11571.52132 477318.3737
 -6633.77229 -11207.35927 477286.3495
 -10497.04612 -10497.05021 477233.1666
 -12891.77566 -9973.360934 477185.7138
 0 0 -0
 0 0 0
 12300.07718 -12300.08165 477147.0291
 9973.356662 -12891.78021 477185.7138
 5851.170979 -14312.12712 477213.577
 1992.777642 -14799.71532 477230.4145
 -1992.777625 -14799.71531 477230.4145
 -5851.17099 -14312.12713 477213.577
 -9973.356668 -12891.7802 477185.7138
 -12300.07717 -12300.08163 477147.0291
 0 0 -0
 0 0 0
 0 0 0
 0 0 0
 4078.439783 -16606.2316 477157.7
 1583.331738 -16727.49255 477168.2673
 -1583.33174 -16727.49256 477168.2673
 -4078.439779 -16606.2316 477157.7
 0 0 -0
 0 0 -0
 0 0 -0
 0 0 0
 0 0 0
 0 0 0
 3138.262741 12830.29449 477281.2652
 1218.177753 12919.45723 477287.6229
 -1218.177753 12919.45721 477287.6229
 -3138.262734 12830.2945 477281.2652
 0 0 -0
 0 0 -0
 0 0 -0
 0 0 0
 9505.617446 9505.617748 477274.7194
 7700.862557 9952.406947 477298.1433
 4511.198815 11047.65755 477314.8538
 1535.429734 11422.64171 477324.8757
 -1535.429732 11422.64175 477324.8757
 -4511.198818 11047.65751 477314.8538
 -7700.86256 9952.406973 477298.1433
 -9505.61744 9505.617739 477274.7194
 0 0 -0
 0 0 0
 9952.40681 7700.862267 477298.1433
 8100.360849 8100.361124 477326.5545
 5117.076712 8648.611045 477358.239
 1748.785122 8930.766593 477377.2664
 -1748.785115 8930.766554 477377.2664
 -5117.076738 8648.611086 477358.239
 -8100.360813 8100.361083 477326.5545
 -9952.406833 7700.862298 477298.1433
 0 0 -0
 12830.29317 3138.261595 477281.2653
 11047.65674 4511.198249 477314.8538
 8648.611134 5117.075673 477358.239
 5490.898557 5490.897818 477400.8498
 1880.605773 5673.655124 477426.5852
 -1880.605798 5673.65514 477426.5852
 -5490.898493 5490.897782 477400.8498
 -8648.611234 5117.075717 477358.239
 -11047.65665 4511.198212 477314.8538
 -12830.29319 3138.261615 477281.2653
 12919.456 1218.176409 477287.6229
 11422.64089 1535.427681 477324.8758
 8930.766563 1748.783535 477377.2664
 5673.655976 1880.604154 477426.5852
 1944.2196 1944.217313 477456.0831
 -1944.21956 1944.21731 477456.0831
 -5673.65609 1880.604159 477426.5852
 -8930.766405 1748.783499 477377.2664
 -11422.64103 1535.427719 477324.8758
 -12919.45595 1218.176393 477287.6229
 12919.4562 -1218.180669 477287.6229
 11422.64107 -1535.431767 477324.8758
 8930.766695 -1748.787578 477377.2664
 5673.655994 -1880.608001 477426.5852
 1944.219641 -1944.221597 477456.0831
 -1944.219688 -1944.221596 477456.0831
 -5673.655863 -1880.608018 477426.5852
 -8930.766877 -1748.787563 477377.2664
 -11422.64091 -1535.431789 477324.8758
 -12919.45626 -1218.180653 477287.6229
 12830.29358 -3138.266131 477281.2652
 11047.65708 -4511.202354 477314.8538
 8648.611377 -5117.079742 477358.239
 5490.898755 -5490.901808 477400.8497
 1880.605624 -5673.659219 477426.5852
 -1880.605593 -5673.659237 477426.5852
 -5490.898845 -5490.901799 477400.8497
 -8648.611251 -5117.079741 477358.239
 -11047.6572 -4511.202355 477314.8538
 -12830.29355 -3138.266125 477281.2652
 0 0 0
 9952.407309 -7700.865988 477298.1432
 8100.361357 -8100.364856 477326.5544
 5117.076875 -8648.614271 477358.2389
 1748.785396 -8930.770043 477377.2663
 -1748.785404 -8930.770008 477377.2663
 -5117.076845 -8648.614292 477358.2389
 -8100.36141 -8100.364852 477326.5544
 -9952.407271 -7700.865976 477298.1432
 0 0 -0
 0 0 0
 9505.618176 -9505.621926 477274.7193
 7700.86314 -9952.410963 477298.1432
 4511.199204 -11047.66106 477314.8537
 1535.429821 -11422.64492 477324.8757
 -1535.429826 -11422.64498 477324.8757
 -4511.199205 -11047.66103 477314.8537
 -7700.863121 -9952.41097 477298.1432
 -9505.618182 -9505.621916 477274.7193
 0 0 -0
 0 0 0
 0 0 0
 0 0 0
 3138.263064 -12830.29783 477281.2651
 1218.177972 -12919.46068 477287.6228
 -1218.177969 -12919.46065 477287.6228
 -3138.263064 -12830.29785 477281.2651
 0 0 -0
 0 0 -0
 0 0 -0
 0 0 0
 0 0 0
 0 0 0
 2402.110779 9846.827633 477356.4089
 932.2251075 9911.70942 477360.1997
 -932.2251079 9911.709439 477360.1997
 -2402.110778 9846.827622 477356.4089
 0 0 -0
 0 0 -0
 0 0 -0
 0 0 0
 7297.143732 7297.144451 477352.4638
 5905.687116 7631.393143 477366.4798
 3454.959077 8468.128194 477376.398
 1175.144536 8752.734903 477382.3205
 -1175.144536 8752.73485 477382.3205
 -3454.959077 8468.128229 477376.398
 -5905.687111 7631.393118 477366.4798
 -7297.143738 7297.144457 477352.4638
 0 0 -0
 0 0 0
 7631.392608 5905.687365 477366.4798
 6205.857286 6205.857742 477383.3323
 3916.866006 6622.147137 477402.0074
 1337.993987 6836.36525 477413.1808
 -1337.994 6836.365325 477413.1808
 -3916.865975 6622.147061 477402.0074
 -6205.857337 6205.857807 477383.3323
 -7631.392574 5905.687329 477366.4798
 0 0 -0
 9846.826327 2402.110194 477356.409
 8468.127208 3454.958466 477376.398
 6622.146726 3916.865704 477402.0074
 4201.465902 4201.465446 477427.0276
 1438.547659 4340.658022 477442.1018
 -1438.547627 4340.657935 477442.1018
 -4201.465994 4201.465537 477427.0276
 -6622.146603 3916.865619 477402.0074
 -8468.127312 3454.958532 477376.398
 -9846.826292 2402.110171 477356.409
 9911.708107 932.2241856 477360.1997
 8752.734203 1175.14366 477382.3206
 6836.365024 1337.992583 477413.1808
 4340.658308 1438.547211 477442.1018
 1487.110364 1487.109017 477459.3682
 -1487.110414 1487.1091 477459.3682
 -4340.658168 1438.547113 477442.1018
 -6836.365214 1337.992682 477413.1808
 -8752.73404 1175.14357 477382.3206
 -9911.708169 932.2242167 477360.1997
 9911.708374 -932.2268416 477360.1997
 8752.734103 -1175.14592 477382.3206
 6836.365202 -1337.99487 477413.1808
 4340.658245 -1438.549454 477442.1018
 1487.110123 -1487.111762 477459.3682
 -1487.110062 -1487.11188 477459.3682
 -4340.658397 -1438.549343 477442.1018
 -6836.365004 -1337.994965 477413.1808
 -8752.734271 -1175.145849 477382.3205
 -9911.708311 -932.2268781 477360.1997
 9846.826583 -2402.113016 477356.4089
 8468.127423 -3454.96085 477376.398
 6622.146523 -3916.867761 477402.0073
 4201.465774 -4201.467876 477427.0276
 1438.547712 -4340.660525 477442.1018
 -1438.547751 -4340.660376 477442.1018
 -4201.465668 -4201.467992 477427.0276
 -6622.146655 -3916.867691 477402.0073
 -8468.127317 -3454.960894 477376.398
 -9846.82662 -2402.113008 477356.4089
 0 0 0
 7631.392633 -5905.689358 477366.4797
 6205.857428 -6205.859897 477383.3323
 3916.865933 -6622.148781 477402.0073
 1337.994005 -6836.367287 477413.1807
 -1337.993985 -6836.367448 477413.1807
 -3916.865974 -6622.148676 477402.0073
 -6205.857374 -6205.859951 477383.3323
 -7631.392667 -5905.689336 477366.4797
 0 0 -0
 0 0 0
 7297.143962 -7297.146933 477352.4637
 5905.687236 -7631.395398 477366.4797
 3454.959211 -8468.130393 477376.398
 1175.144643 -8752.736967 477382.3205
 -1175.144643 -8752.736832 477382.3205
 -3454.959198 -8468.130482 477376.3979
 -5905.687247 -7631.395365 477366.4797
 -7297.143951 -7297.146938 477352.4637
 0 0 -0
 0 0 0
 0 0 0
 0 0 0
 2402.111003 -9846.829764 477356.4089
 932.225346 -9911.711761 477360.1997
 -932.2253443 -9911.711817 477360.1997
 -2402.111005 -9846.829739 477356.4089
 0 0 -0
 0 0 -0
 0 0 -0
 0 0 0
 0 0 0
 0 0 0
 1836.429385 7540.326823 477400.9241
 712.5122884 7587.467397 477403.1776
 -712.512289 7587.46736 477403.1776
 -1836.429384 7540.326839 477400.9241
 0 0 -0
 0 0 -0
 0 0 -0
 0 0 0
 5589.401907 5589.402814 477398.5635
 4518.962071 5838.920925 477406.9095
 2640.694227 6476.073861 477412.7758
 897.6278515 6691.072774 477416.2703
 -897.6278456 6691.072857 477416.2703
 -2640.69423 6476.073794 477412.7758
 -4518.962082 5838.920963 477406.9095
 -5589.401908 5589.4028 477398.5635
 0 0 -0
 0 0 0
 5838.919841 4518.962966 477406.9095
 4743.319594 4743.32056 477416.8756
 2990.664631 5057.386907 477427.848
 1021.0113 5218.658687 477434.3876
 -1021.011294 5218.658583 477434.3876
 -2990.664644 5057.387009 477427.848
 -4743.319555 4743.320463 477416.8756
 -5838.919872 4518.963011 477406.9095
 0 0 -0
 7540.325117 1836.429471 477400.9241
 6476.072639 2640.69452 477412.7758
 5057.385099 2990.66506 477427.848
 3205.35152 3205.35243 477442.4811
 1096.894049 3310.13004 477451.2657
 -1096.894068 3310.13016 477451.2657
 -3205.351457 3205.352293 477442.4811
 -5057.385194 2990.665188 477427.848
 -6476.072544 2640.694422 477412.7758
 -7540.325144 1836.4295 477400.9241
 7587.465948 712.5122557 477403.1776
 6691.071393 897.6275336 477416.2703
 5218.657437 1021.011495 477434.3876
 3310.129012 1096.894081 477451.2657
 1133.470135 1133.470107 477461.3092
 -1133.470098 1133.469949 477461.3092
 -3310.129121 1096.89424 477451.2657
 -5218.657274 1021.011337 477434.3876
 -6691.071538 897.6276543 477416.2703
 -7587.465887 712.512209 477403.1776
 7587.466079 -712.5130927 477403.1776
 6691.07151 -897.6278017 477416.2703
 5218.657297 -1021.01153 477434.3876
 3310.129114 -1096.894213 477451.2657
 1133.469771 -1133.471184 477461.3092
 -1133.469816 -1133.470943 477461.3092
 -3310.128995 -1096.894422 477451.2657
 -5218.657456 -1021.011363 477434.3876
 -6691.071367 -897.62792 477416.2703
 -7587.466133 -712.5130535 477403.1776
 7540.325262 -1836.430485 477400.9241
 6476.072505 -2640.694919 477412.7758
 5057.38493 -2990.664946 477427.848
 3205.351078 -3205.352942 477442.4811
 1096.894169 -3310.130443 477451.2657
 -1096.894135 -3310.130734 477451.2657
 -3205.351161 -3205.352714 477442.4811
 -5057.384823 -2990.665096 477427.848
 -6476.072594 -2640.694834 477412.7758
 -7540.325234 -1836.430513 477400.9241
 0 0 0
 5838.919732 -4518.963457 477406.9095
 4743.31931 -4743.320887 477416.8756
 2990.664433 -5057.386792 477427.848
 1021.01108 -5218.659257 477434.3876
 -1021.011095 -5218.658997 477434.3876
 -2990.664391 -5057.386988 477427.848
 -4743.319343 -4743.320771 477416.8756
 -5838.919704 -4518.963501 477406.9095
 0 0 -0
 0 0 0
 5589.4019 -5589.403723 477398.5635
 4518.961921 -5838.921525 477406.9095
 2640.694107 -6476.074676 477412.7758
 897.6278565 -6691.073367 477416.2702
 -897.627854 -6691.073546 477416.2702
 -2640.69411 -6476.074556 477412.7758
 -4518.961909 -5838.921572 477406.9095
 -5589.401904 -5589.403703 477398.5635
 0 0 -0
 0 0 0
 0 0 0
 0 0 0
 1836.429473 -7540.327674 477400.924
 712.5124387 -7587.468488 477403.1776
 -712.5124406 -7587.468424 477403.1776
 -1836.429474 -7540.327715 477400.924
 0 0 -0
 0 0 -0
 0 0 -0
 0 0 0
 0 0 0
 0 0 0
 1407.048674 5782.183583 477426.9136
 545.7703643 5816.587133 477428.2572
 -545.7703628 5816.587183 477428.2572
 -1407.04868 5782.183556 477426.9136
 0 0 -0
 0 0 -0
 0 0 -0
 0 0 0
 4287.384101 4287.386512 477425.4999
 3462.951461 4474.171405 477430.4777
 2021.738675 4959.874782 477433.9572
 686.857383 5122.431779 477436.0274
 -686.8573892 5122.431659 477436.0274
 -2021.738657 4959.874884 477433.9572
 -3462.951467 4474.171348 477430.4777
 -4287.384107 4287.386538 477425.4999
 0 0 -0
 0 0 0
 4474.168454 3462.953325 477430.4777
 3630.836245 3630.838539 477436.3888
 2286.856886 3867.793496 477442.8571
 780.2633989 3989.099236 477446.6981
 -780.2633855 3989.099387 477446.6981
 -2286.856901 3867.793341 477442.8571
 -3630.836241 3630.838666 477436.3888
 -4474.168442 3462.953261 477430.4777
 0 0 -0
 5782.179998 1407.0499 477426.9137
 4959.871664 2021.740457 477433.9572
 3867.790114 2286.8594 477442.8571
 2448.570764 2448.573088 477451.4429
 837.3964909 2527.236904 477456.5772
 -837.3964919 2527.236733 477456.5772
 -2448.570767 2448.57327 477451.4429
 -3867.790079 2286.859225 477442.8571
 -4959.871706 2021.740583 477433.9572
 -5782.179979 1407.049872 477426.9137
 5816.584094 545.7710292 477428.2572
 5122.428622 686.8588518 477436.0274
 3989.095836 780.2650615 477446.6982
 2527.233982 837.3980368 477456.5772
 864.8431756 864.8443092 477462.4335
 -864.8431841 864.8445318 477462.4335
 -2527.23394 837.3978132 477456.5772
 -3989.095916 780.2652609 477446.6982
 -5122.428528 686.8587106 477436.0274
 -5816.584135 545.7710832 477428.2572
 5816.584173 -545.7696584 477428.2572
 5122.428643 -686.8566742 477436.0274
 3989.095837 -780.262544 477446.6982
 2527.233767 -837.3959007 477456.5772
 864.8431971 -864.8432609 477462.4335
 -864.8431842 -864.8435508 477462.4335
 -2527.233816 -837.39564 477456.5772
 -3989.095745 -780.2627466 477446.6982
 -5122.428733 -686.8565372 477436.0274
 -5816.584137 -545.7697043 477428.2572
 5782.180065 -1407.048628 477426.9137
 4959.871606 -2021.738612 477433.9573
 3867.78983 -2286.856872 477442.8571
 2448.570487 -2448.571091 477451.4429
 837.3961737 -2527.235332 477456.5772
 -837.3961849 -2527.235016 477456.5772
 -2448.570459 -2448.571359 477451.4429
 -3867.789881 -2286.856678 477442.8571
 -4959.871553 -2021.738731 477433.9573
 -5782.180084 -1407.048602 477426.9137
 0 0 0
 4474.168289 -3462.951886 477430.4777
 3630.835812 -3630.836776 477436.3888
 2286.856534 -3867.791439 477442.8571
 780.2633135 -3989.097678 477446.6982
 -780.2633132 -3989.097944 477446.6982
 -2286.856542 -3867.791227 477442.8571
 -3630.835802 -3630.836908 477436.3888
 -4474.168301 -3462.951823 477430.4777
 0 0 -0
 0 0 0
 4287.383958 -4287.385632 477425.4999
 3462.951199 -4474.169947 477430.4777
 2021.738445 -4959.873565 477433.9572
 686.8572716 -5122.430512 477436.0274
 -686.8572649 -5122.430357 477436.0274
 -2021.738451 -4959.873679 477433.9572
 -3462.951197 -4474.169892 477430.4777
 -4287.383958 -4287.38565 477425.4999
 0 0 -0
 0 0 0
 0 0 0
 0 0 0
 1407.048555 -5782.182489 477426.9136
 545.7702327 -5816.58638 477428.2572
 -545.7702346 -5816.586432 477428.2572
 -1407.04855 -5782.182465 477426.9136
 0 0 -0
 0 0 -0
 0 0 -0
 0 0 0
 0 0 0
 0 0 0
 1083.491804 4453.433963 477442.0009
 420.1515444 4478.759855 477442.8086
 -420.1515475 4478.759801 477442.8086
 -1083.491797 4453.434002 477442.0009
 0 0 -0
 0 0 -0
 0 0 -0
 0 0 0
 3303.149819 3303.154368 477441.1479
 2665.621251 3443.866398 477444.1387
 1555.126612 3815.754445 477446.2199
 528.0910333 3939.249121 477447.4576
 -528.0910251 3939.249276 477447.4576
 -1555.126639 3815.754321 477446.2199
 -2665.621232 3443.866466 477444.1387
 -3303.149821 3303.154337 477441.1479
 0 0 -0
 0 0 0
 3443.86144 2665.624769 477444.1387