# OOMMF OVF 2.0
#
# Segment count: 1
#
# Begin: Segment
# Begin: Header
#
# Title: Oxs_MinDriver::Magnetization
# Desc: Oxs vector field output
# Desc:  MIF source file: F:/Bogdan/UNIC/2022/Master_degree/Simulation_samples/Cylinder0_5000 1.mif
# Desc:  Iteration: 1496, State id: 3242
# Desc:  Stage: 3, Stage iteration: 73
# Desc:  Stage simulation time: 0 s
# Desc:  Total simulation time: -2 s
# meshunit: m
# meshtype: rectangular
# xbase: -8.9999999999999995e-09
# ybase: -8.9999999999999995e-09
# zbase: -8.6999999999999998e-08
# xnodes: 10
# ynodes: 10
# znodes: 88
# xstepsize: 2.0000000000000001e-09
# ystepsize: 2.0000000000000001e-09
# zstepsize: 2.0000000000000001e-09
# xmin: -1e-08
# ymin: -1e-08
# zmin: -8.7999999999999994e-08
# xmax: 1e-08
# ymax: 1e-08
# zmax: 8.800000000000002e-08
# valuedim: 3
# valuelabels: Magnetization_x Magnetization_y Magnetization_z
# valueunits: A/m A/m A/m
#
# End: Header
#
# Begin: Data Text
 0 0 0
 0 0 0
 0 0 0
 8784.248257 33313.38563 476219.4102
 3314.008307 33548.88785 476272.3599
 -3314.008307 33548.88785 476272.3599
 -8784.248257 33313.38563 476219.4102
 0 0 -0
 0 0 -0
 0 0 -0
 0 0 0
 24731.57447 24731.57451 476181.2362
 19687.80652 25796.65197 476359.942
 11645.94814 28050.53541 476497.0206
 3938.298315 28675.18335 476585.8736
 -3938.298315 28675.18336 476585.8736
 -11645.94814 28050.5354 476497.0206
 -19687.80652 25796.65198 476359.942
 -24731.57447 24731.57451 476181.2362
 0 0 -0
 0 0 0
 25796.65194 19687.80656 476359.942
 20349.91403 20349.91408 476595.8805
 12632.6555 21254.84571 476823.3623
 4275.377398 21661.2679 476953.2282
 -4275.377397 21661.26789 476953.2282
 -12632.6555 21254.84572 476823.3623
 -20349.91403 20349.91408 476595.8805
 -25796.65194 19687.80656 476359.942
 0 0 -0
 33313.38559 8784.248294 476219.4102
 28050.53536 11645.9482 476497.0206
 21254.84569 12632.65552 476823.3623
 13176.97811 13176.97818 477100.2052
 4458.326944 13420.48964 477254.5286
 -4458.326944 13420.48965 477254.5286
 -13176.97811 13176.97817 477100.2052
 -21254.84569 12632.65553 476823.3623
 -28050.53536 11645.94819 476497.0206
 -33313.3856 8784.248295 476219.4102
 33548.88781 3314.008353 476272.3599
 28675.18332 3938.298339 476585.8737
 21661.26785 4275.377465 476953.2282
 13420.48961 4458.326958 477254.5286
 4540.003797 4540.00386 477420.8291
 -4540.003796 4540.003845 477420.8291
 -13420.48962 4458.326972 477254.5286
 -21661.26785 4275.377454 476953.2282
 -28675.18332 3938.298345 476585.8737
 -33548.88781 3314.008351 476272.3599
 33548.88781 -3314.008272 476272.3599
 28675.18331 -3938.298256 476585.8737
 21661.26786 -4275.377382 476953.2282
 13420.4896 -4458.326874 477254.5286
 4540.003812 -4540.003776 477420.8291
 -4540.003813 -4540.00376 477420.8291
 -13420.4896 -4458.326889 477254.5286
 -21661.26786 -4275.377371 476953.2282
 -28675.18331 -3938.298263 476585.8737
 -33548.88781 -3314.008269 476272.3599
 33313.38559 -8784.248212 476219.4102
 28050.53536 -11645.94811 476497.0206
 21254.84568 -12632.65544 476823.3623
 13176.97812 -13176.97809 477100.2052
 4458.326931 -13420.48955 477254.5286
 -4458.326931 -13420.48957 477254.5286
 -13176.97812 -13176.97808 477100.2052
 -21254.84568 -12632.65545 476823.3623
 -28050.53536 -11645.94811 476497.0206
 -33313.38559 -8784.248214 476219.4102
 0 0 0
 25796.65194 -19687.80647 476359.942
 20349.91403 -20349.914 476595.8805
 12632.65549 -21254.84563 476823.3623
 4275.377405 -21661.26782 476953.2282
 -4275.377405 -21661.26781 476953.2282
 -12632.65549 -21254.84564 476823.3623
 -20349.91404 -20349.914 476595.8805
 -25796.65194 -19687.80648 476359.942
 0 0 -0
 0 0 0
 24731.57447 -24731.57443 476181.2362
 19687.80652 -25796.65189 476359.942
 11645.94814 -28050.53533 476497.0206
 3938.298312 -28675.18327 476585.8737
 -3938.298312 -28675.18328 476585.8737
 -11645.94814 -28050.53532 476497.0206
 -19687.80652 -25796.6519 476359.942
 -24731.57447 -24731.57443 476181.2362
 0 0 -0
 0 0 0
 0 0 0
 0 0 0
 8784.248256 -33313.38555 476219.4102
 3314.008307 -33548.88777 476272.3599
 -3314.008307 -33548.88777 476272.3599
 -8784.248256 -33313.38555 476219.4102
 0 0 -0
 0 0 -0
 0 0 -0
 0 0 0
 0 0 0
 0 0 0
 7404.47633 28946.79737 476528.2027
 2852.945025 29163.63059 476563.967
 -2852.945025 29163.63059 476563.967
 -7404.47633 28946.79737 476528.2027
 0 0 -0
 0 0 -0
 0 0 -0
 0 0 0
 21453.90954 21453.90957 476499.0355
 17293.11912 22455.14544 476622.0576
 10204.54679 24717.0155 476714.5977
 3470.961043 25416.85325 476774.3778
 -3470.961042 25416.85323 476774.3778
 -10204.54679 24717.01552 476714.5977
 -17293.11912 22455.14544 476622.0576
 -21453.90954 21453.90958 476499.0355
 0 0 -0
 0 0 0
 22455.14539 17293.11918 476622.0576
 18036.29103 18036.29104 476782.189
 11287.24983 19011.68905 476951.8057
 3835.75363 19471.11758 477051.3954
 -3835.753631 19471.11761 477051.3954
 -11287.24983 19011.68903 476951.8057
 -18036.29104 18036.29105 476782.189
 -22455.14539 17293.11917 476622.0576
 0 0 -0
 28946.79733 7404.476377 476528.2027
 24717.01549 10204.54679 476714.5977
 19011.68897 11287.24993 476951.8057
 11888.94059 11888.94057 477167.8714
 4038.132665 12161.52665 477292.0092
 -4038.132663 12161.52661 477292.0092
 -11888.9406 11888.9406 477167.8714
 -19011.68897 11287.2499 476951.8057
 -24717.01549 10204.5468 476714.5977
 -28946.79732 7404.476374 476528.2027
 29163.63055 2852.945047 476563.967
 25416.85319 3470.961129 476774.3778
 19471.11758 3835.753599 477051.3954
 12161.52656 4038.132778 477292.0092
 4129.085523 4129.085505 477428.2905
 -4129.085524 4129.085549 477428.2905
 -12161.52656 4038.132737 477292.0092
 -19471.11758 3835.753631 477051.3954
 -25416.85319 3470.961109 476774.3778
 -29163.63056 2852.945053 476563.967
 29163.63055 -2852.94497 476563.967
 25416.8532 -3470.961053 476774.3778
 19471.11756 -3835.753521 477051.3954
 12161.5266 -4038.1327 477292.0092
 4129.085483 -4129.085426 477428.2905
 -4129.085481 -4129.085471 477428.2905
 -12161.5266 -4038.132658 477292.0092
 -19471.11755 -3835.753554 477051.3954
 -25416.85321 -3470.961032 476774.3778
 -29163.63055 -2852.944977 476563.967
 28946.79733 -7404.476302 476528.2027
 24717.01548 -10204.54671 476714.5977
 19011.68899 -11287.24985 476951.8057
 11888.94057 -11888.94049 477167.8714
 4038.132696 -12161.52657 477292.0092
 -4038.132697 -12161.52653 477292.0092
 -11888.94056 -11888.94053 477167.8714
 -19011.68899 -11287.24983 476951.8057
 -24717.01548 -10204.54673 476714.5977
 -28946.79733 -7404.476298 476528.2027
 0 0 0
 22455.1454 -17293.1191 476622.0576
 18036.29103 -18036.29096 476782.189
 11287.24985 -19011.68898 476951.8057
 3835.753612 -19471.1175 477051.3954
 -3835.753611 -19471.11753 477051.3954
 -11287.24985 -19011.68895 476951.8057
 -18036.29102 -18036.29098 476782.189
 -22455.1454 -17293.11909 476622.0576
 0 0 -0
 0 0 0
 21453.90954 -21453.9095 476499.0355
 17293.11913 -22455.14537 476622.0576
 10204.54678 -24717.01543 476714.5977
 3470.96105 -25416.85317 476774.3778
 -3470.961051 -25416.85315 476774.3778
 -10204.54678 -24717.01544 476714.5977
 -17293.11913 -22455.14536 476622.0576
 -21453.90954 -21453.9095 476499.0355
 0 0 -0
 0 0 0
 0 0 0
 0 0 0
 7404.476331 -28946.79729 476528.2027
 2852.945023 -29163.63051 476563.967
 -2852.945023 -29163.63052 476563.967
 -7404.476331 -28946.79729 476528.2027
 0 0 -0
 0 0 -0
 0 0 -0
 0 0 0
 0 0 0
 0 0 0
 5952.562908 23696.42229 476838.461
 2306.835871 23879.3754 476860.9076
 -2306.835871 23879.37539 476860.9076
 -5952.562908 23696.4223 476838.461
 0 0 -0
 0 0 -0
 0 0 -0
 0 0 0
 17556.69768 17556.69772 476817.9905
 14220.77384 18409.03999 476896.9995
 8378.369629 20373.15429 476955.5627
 2855.274882 21022.91819 476992.4062
 -2855.274883 21022.91822 476992.4062
 -8378.369628 20373.15427 476955.5627
 -14220.77384 18409.04 476896.9995
 -17556.69768 17556.69772 476817.9905
 0 0 -0
 0 0 0
 18409.03998 14220.77385 476896.9995
 14919.14599 14919.14607 476997.599
 9393.213539 15838.20516 477108.7822
 3202.881134 16290.55484 477175.262
 -3202.881133 16290.55479 477175.262
 -9393.213541 15838.2052 477108.7822
 -14919.14599 14919.14604 476997.599
 -18409.03998 14220.77386 476896.9995
 0 0 -0
 23696.42226 5952.562928 476838.461
 20373.15423 8378.369713 476955.5627
 15838.20518 9393.213495 477108.7822
 9983.613742 9983.613859 477255.2003
 3404.662219 10259.33737 477341.6235
 -3404.662221 10259.33744 477341.6235
 -9983.613738 9983.613803 477255.2003
 -15838.20519 9393.213538 477108.7822
 -20373.15422 8378.369688 476955.5627
 -23696.42227 5952.562934 476838.461
 23879.37536 2306.835927 476860.9076
 21022.91819 2855.274851 476992.4062
 16290.55476 3202.881262 477175.262
 10259.33741 3404.662154 477341.6235
 3497.665091 3497.665203 477438.3771
 -3497.665089 3497.665131 477438.3771
 -10259.33741 3404.662219 477341.6235
 -16290.55475 3202.881211 477175.262
 -21022.91819 2855.274883 476992.4062
 -23879.37536 2306.835916 476860.9076
 23879.37536 -2306.83586 476860.9076
 21022.91817 -2855.274784 476992.4062
 16290.55478 -3202.881194 477175.262
 10259.33737 -3404.662086 477341.6235
 3497.665137 -3497.665134 477438.3771
 -3497.665139 -3497.665063 477438.3771
 -10259.33736 -3404.662151 477341.6235
 -16290.55479 -3202.881143 477175.262
 -21022.91817 -2855.274816 476992.4062
 -23879.37537 -2306.835849 476860.9076
 23696.42226 -5952.562861 476838.461
 20373.15424 -8378.369646 476955.5627
 15838.20517 -9393.213427 477108.7822
 9983.61377 -9983.613791 477255.2003
 3404.662184 -10259.33731 477341.6235
 -3404.662182 -10259.33737 477341.6235
 -9983.613774 -9983.613735 477255.2003
 -15838.20516 -9393.213471 477108.7822
 -20373.15424 -8378.36962 476955.5627
 -23696.42226 -5952.562868 476838.461
 0 0 0
 18409.03997 -14220.77378 476896.9995
 14919.146 -14919.14601 476997.599
 9393.213523 -15838.20509 477108.7822
 3202.881154 -16290.55477 477175.262
 -3202.881156 -16290.55472 477175.262
 -9393.21352 -15838.20513 477108.7822
 -14919.146 -14919.14598 476997.599
 -18409.03997 -14220.77379 476896.9995
 0 0 -0
 0 0 0
 17556.69768 -17556.69766 476817.9905
 14220.77384 -18409.03993 476896.9995
 8378.369635 -20373.15422 476955.5627
 2855.274874 -21022.91813 476992.4062
 -2855.274873 -21022.91815 476992.4062
 -8378.369637 -20373.1542 476955.5627
 -14220.77383 -18409.03994 476896.9995
 -17556.69769 -17556.69765 476817.9905
 0 0 -0
 0 0 0
 0 0 0
 0 0 0
 5952.562906 -23696.42222 476838.461
 2306.835873 -23879.37533 476860.9076
 -2306.835873 -23879.37533 476860.9076
 -5952.562906 -23696.42223 476838.461
 0 0 -0
 0 0 -0
 0 0 -0
 0 0 0
 0 0 0
 0 0 0
 4665.956398 18769.57911 477072.1151
 1810.471872 18913.12349 477085.828
 -1810.471872 18913.1235 477085.828
 -4665.956398 18769.5791 477072.1151
 0 0 -0
 0 0 -0
 0 0 -0
 0 0 0
 13908.0983 13908.09831 477058.6975
 11278.95754 14586.6017 477107.8363
 6635.290376 16175.2864 477143.7984
 2261.706123 16715.81555 477165.9433
 -2261.706123 16715.81551 477165.9434
 -6635.290377 16175.28643 477143.7984
 -11278.95754 14586.60168 477107.8363
 -13908.0983 13908.09832 477058.6975
 0 0 -0
 0 0 0
 14586.60165 11278.9576 477107.8363
 11862.5769 11862.57688 477169.1837
 7490.681285 12640.26007 477237.8703
 2558.77912 13033.07362 477279.2295
 -2558.779121 13033.07369 477279.2295
 -7490.681284 12640.26001 477237.8703
 -11862.5769 11862.57692 477169.1837
 -14586.60165 11278.95758 477107.8363
 0 0 -0
 18769.57907 4665.956438 477072.1151
 16175.2864 6635.290353 477143.7984
 12640.25998 7490.681391 477237.8703
 8005.492751 8005.492694 477329.7555
 2737.327356 8251.877484 477384.8394
 -2737.327355 8251.877397 477384.8394
 -8005.492755 8005.49277 477329.7555
 -12640.25998 7490.681334 477237.8703
 -16175.2864 6635.290386 477143.7984
 -18769.57907 4665.95643 477072.1151
 18913.12347 1810.471878 477085.828
 16715.81549 2261.706215 477165.9434
 13033.07365 2558.779053 477279.2295
 8251.877386 2737.327485 477384.8394
 2821.575786 2821.575732 477447.3256
 -2821.575788 2821.575829 477447.3256
 -8251.877382 2737.327399 477384.8394
 -13033.07365 2558.77912 477279.2295
 -16715.81549 2261.706174 477165.9434
 -18913.12347 1810.471891 477085.828
 18913.12347 -1810.471823 477085.828
 16715.8155 -2261.706161 477165.9434
 13033.07363 -2558.778998 477279.2295
 8251.87741 -2737.327429 477384.8394
 2821.575755 -2821.575678 477447.3256
 -2821.575754 -2821.575772 477447.3256
 -8251.877414 -2737.327344 477384.8394
 -13033.07363 -2558.779064 477279.2295
 -16715.8155 -2261.70612 477165.9434
 -18913.12347 -1810.471836 477085.828
 18769.57907 -4665.956384 477072.1151
 16175.2864 -6635.290298 477143.7984
 12640.25999 -7490.681335 477237.8703
 8005.492734 -8005.49264 477329.7555
 2737.32738 -8251.877426 477384.8394
 -2737.327381 -8251.877345 477384.8394
 -8005.492731 -8005.492712 477329.7555
 -12640.26 -7490.68128 477237.8703
 -16175.28639 -6635.290331 477143.7984
 -18769.57908 -4665.956376 477072.1151
 0 0 0
 14586.60166 -11278.95754 477107.8363
 11862.57689 -11862.57682 477169.1837
 7490.681294 -12640.26001 477237.8703
 2558.779108 -13033.07357 477279.2295
 -2558.779107 -13033.07363 477279.2295
 -7490.681296 -12640.25996 477237.8703
 -11862.57689 -11862.57686 477169.1837
 -14586.60166 -11278.95752 477107.8363
 0 0 -0
 0 0 0
 13908.09829 -13908.09826 477058.6975
 11278.95755 -14586.60165 477107.8363
 6635.290373 -16175.28634 477143.7984
 2261.706127 -16715.81549 477165.9434
 -2261.706127 -16715.81546 477165.9434
 -6635.290372 -16175.28637 477143.7984
 -11278.95755 -14586.60163 477107.8363
 -13908.09829 -13908.09827 477058.6975
 0 0 -0
 0 0 0
 0 0 0
 0 0 0
 4665.956398 -18769.57905 477072.1151
 1810.471872 -18913.12344 477085.828
 -1810.471872 -18913.12345 477085.828
 -4665.956398 -18769.57905 477072.1151
 0 0 -0
 0 0 -0
 0 0 -0
 0 0 0
 0 0 0
 0 0 0
 3600.577087 14576.16379 477227.8728
 1397.287396 14683.66151 477236.1145
 -1397.287396 14683.6615 477236.1145
 -3600.577087 14576.1638 477227.8728
 0 0 -0
 0 0 -0
 0 0 -0
 0 0 0
 10803.61931 10803.61934 477219.483
 8758.748578 11323.02758 477249.3527
 5144.793257 12562.93679 477270.966
 1752.936081 12988.047 477284.0969
 -1752.936081 12988.04705 477284.0969
 -5144.793257 12562.93675 477270.966
 -8758.748579 11323.0276 477249.3527
 -10803.61931 10803.61933 477219.483
 0 0 -0
 0 0 0
 11323.02758 8758.748579 477249.3527
 9216.288623 9216.288684 477286.0687
 5824.457334 9834.088717 477327.181
 1990.839362 10150.10078 477351.9491
 -1990.839362 10150.1007 477351.9491
 -5824.457335 9834.088785 477327.181
 -9216.288623 9216.288638 477286.0687
 -11323.02758 8758.748598 477249.3527
 0 0 -0
 14576.16377 3600.577096 477227.8728
 12562.93674 5144.793318 477270.966
 9834.088747 5824.457291 477327.181
 6240.636467 6240.636558 477382.4255
 2136.55122 6442.633934 477415.7506
 -2136.55122 6442.634038 477415.7506
 -6240.636466 6240.636467 477382.4255
 -9834.088749 5824.457358 477327.181
 -12562.93674 5144.79328 477270.966
 -14576.16377 3600.577106 477227.8728
 14683.66149 1397.287434 477236.1145
 12988.047 1752.936049 477284.0969
 10150.10071 1990.839458 477351.9491
 6442.633975 2136.551158 477415.7506
 2206.316579 2206.316669 477453.8047
 -2206.316579 2206.316554 477453.8047
 -6442.633976 2136.55126 477415.7506
 -10150.10071 1990.83938 477351.9491
 -12988.047 1752.936096 477284.0969
 -14683.66149 1397.287419 477236.1145
 14683.66148 -1397.287394 477236.1145
 12988.04701 -1752.936009 477284.0969
 10150.10071 -1990.839417 477351.9491
 6442.633979 -2136.551119 477415.7506
 2206.316578 -2206.316627 477453.8047
 -2206.316578 -2206.316516 477453.8047
 -6442.633978 -2136.551218 477415.7506
 -10150.10071 -1990.839341 477351.9491
 -12988.04701 -1752.936056 477284.0969
 -14683.66148 -1397.287379 477236.1145
 14576.16378 -3600.577057 477227.8728
 12562.93673 -5144.793278 477270.966
 9834.088754 -5824.457252 477327.181
 6240.636462 -6240.636515 477382.4255
 2136.551224 -6442.633898 477415.7506
 -2136.551224 -6442.633993 477415.7506
 -6240.636462 -6240.636431 477382.4255
 -9834.088753 -5824.457316 477327.181
 -12562.93674 -5144.793241 477270.966
 -14576.16378 -3600.577066 477227.8728
 0 0 0
 11323.02758 -8758.748539 477249.3527
 9216.288618 -9216.288644 477286.0687
 5824.45734 -9834.08868 477327.181
 1990.839356 -10150.10073 477351.9491
 -1990.839356 -10150.10066 477351.9491
 -5824.457341 -9834.088741 477327.181
 -9216.288618 -9216.288601 477286.0687
 -11323.02758 -8758.748557 477249.3527
 0 0 -0
 0 0 0
 10803.61931 -10803.6193 477219.483
 8758.748581 -11323.02754 477249.3527
 5144.793253 -12562.93674 477270.966
 1752.936087 -12988.04696 477284.0969
 -1752.936087 -12988.047 477284.0969
 -5144.793252 -12562.93671 477270.966
 -8758.748581 -11323.02756 477249.3527
 -10803.61931 -10803.61929 477219.483
 0 0 -0
 0 0 0
 0 0 0
 0 0 0
 3600.577088 -14576.16375 477227.8728
 1397.287394 -14683.66147 477236.1145
 -1397.287394 -14683.66146 477236.1145
 -3600.577089 -14576.16376 477227.8728
 0 0 -0
 0 0 -0
 0 0 -0
 0 0 0
 0 0 0
 0 0 0
 2753.130096 11190.24545 477324.9103
 1068.260404 11268.72903 477329.8083
 -1068.260404 11268.72905 477329.8083
 -2753.130097 11190.24544 477324.9103
 0 0 -0
 0 0 -0
 0 0 -0
 0 0 0
 8296.562333 8296.562341 477319.8146
 6720.293256 8685.997733 477337.6817
 3941.573176 9635.976603 477350.4826
 1342.134573 9960.944401 477358.1984
 -1342.134574 9960.944352 477358.1984
 -3941.573175 9635.976642 477350.4826
 -6720.293256 8685.997713 477337.6817
 -8296.562333 8296.562347 477319.8146
 0 0 -0
 0 0 0
 8685.997711 6720.293279 477337.6817
 7067.237569 7067.237555 477359.382
 4464.815464 7541.501331 477383.5591
 1525.966301 7785.205581 477398.0868
 -1525.9663 7785.205663 477398.0868
 -4464.815465 7541.501262 477383.5591
 -7067.237568 7067.237602 477359.382
 -8685.997711 6720.29326 477337.6817
 0 0 -0
 11190.24543 2753.130114 477324.9103
 9635.976608 3941.573163 477350.4826
 7541.501288 4464.815514 477383.5591
 4787.036098 4787.036067 477416.0029
 1639.356267 4944.356897 477435.5843
 -1639.356267 4944.356791 477435.5843
 -4787.036097 4787.03616 477416.0029
 -7541.501289 4464.815446 477383.5591
 -9635.976607 3941.573202 477350.4826
 -11190.24543 2753.130105 477324.9103
 11268.72903 1068.260406 477329.8083
 9960.944373 1342.134616 477358.1984
 7785.205598 1525.966268 477398.0868
 4944.356847 1639.356328 477435.5843
 1694.007318 1694.007286 477457.9897
 -1694.007317 1694.007405 477457.9897
 -4944.356848 1639.356223 477435.5843
 -7785.205597 1525.966347 477398.0868
 -9960.944374 1342.134568 477358.1984
 -11268.72903 1068.260421 477329.8083
 11268.72903 -1068.260382 477329.8083
 9960.944351 -1342.134592 477358.1984
 7785.205631 -1525.966244 477398.0868
 4944.356807 -1639.356304 477435.5843
 1694.007362 -1694.007263 477457.9897
 -1694.007363 -1694.00738 477457.9897
 -4944.356804 -1639.3562 477435.5843
 -7785.205634 -1525.966323 477398.0868
 -9960.94435 -1342.134544 477358.1984
 -11268.72903 -1068.260398 477329.8083
 11190.24543 -2753.130091 477324.9103
 9635.976625 -3941.57314 477350.4826
 7541.50126 -4464.815491 477383.5591
 4787.036133 -4787.036044 477416.0029
 1639.356227 -4944.356871 477435.5843
 -1639.356226 -4944.35677 477435.5843
 -4787.036136 -4787.036134 477416.0029
 -7541.501257 -4464.815424 477383.5591
 -9635.976627 -3941.573178 477350.4826
 -11190.24543 -2753.130082 477324.9103
 0 0 0
 8685.997703 -6720.293256 477337.6817
 7067.237587 -7067.237531 477359.382
 4464.815438 -7541.501307 477383.5591
 1525.966332 -7785.20556 477398.0868
 -1525.966333 -7785.205637 477398.0868
 -4464.815435 -7541.501241 477383.5591
 -7067.23759 -7067.237577 477359.382
 -8685.997702 -6720.293237 477337.6817
 0 0 -0
 0 0 0
 8296.562336 -8296.562317 477319.8146
 6720.293248 -8685.997709 477337.6817
 3941.573191 -9635.97658 477350.4826
 1342.134554 -9960.944377 477358.1984
 -1342.134553 -9960.94433 477358.1984
 -3941.573193 -9635.976617 477350.4826
 -6720.293247 -8685.997691 477337.6817
 -8296.562336 -8296.562324 477319.8146
 0 0 -0
 0 0 0
 0 0 0
 0 0 0
 2753.130093 -11190.24542 477324.9103
 1068.26041 -11268.72901 477329.8083
 -1068.260411 -11268.72903 477329.8083
 -2753.130092 -11190.24542 477324.9103
 0 0 -0
 0 0 -0
 0 0 -0
 0 0 0
 0 0 0
 0 0 0
 2096.62958 8543.318857 477382.9565
 813.3279774 8599.996746 477385.8501
 -813.3279776 8599.996733 477385.8501
 -2096.62958 8543.318865 477382.9565
 0 0 -0
 0 0 -0
 0 0 -0
 0 0 0
 6336.169861 6336.169865 477379.9087
 5126.81941 6625.512909 477390.5001
 3002.933026 7347.104416 477398.0244
 1021.832113 7592.267991 477402.5394
 -1021.832113 7592.268033 477402.5394
 -3002.933028 7347.104383 477398.0244
 -5126.819409 6625.512925 477390.5001
 -6336.169861 6336.169859 477379.9087
 0 0 -0
 0 0 0
 6625.512907 5126.819411 477390.5001
 5385.821002 5385.82101 477403.2438
 3399.543122 5743.834286 477417.3465
 1161.353059 5927.820497 477425.7885
 -1161.35306 5927.820427 477425.7885
 -3399.543119 5743.834345 477417.3465
 -5385.821004 5385.82097 477403.2438
 -6625.512906 5126.819427 477390.5001
 0 0 -0
 8543.318855 2096.629582 477382.9565
 7347.104411 3002.933034 477398.0244
 5743.834289 3399.543118 477417.3465
 3643.514913 3643.514924 477436.1956
 1247.394485 3762.722184 477447.544
 -1247.394484 3762.722277 477447.544
 -3643.514916 3643.514844 477436.1956
 -5743.834285 3399.543177 477417.3465
 -7347.104413 3002.933001 477398.0244
 -8543.318854 2096.62959 477382.9565
 8599.996742 813.3279823 477385.8501
 7592.26799 1021.832111 477402.5394
 5927.820488 1161.35307 477425.7885
 3762.722189 1247.394479 477447.544
 1288.915652 1288.915665 477460.5206
 -1288.915654 1288.915559 477460.5206
 -3762.722185 1247.394572 477447.544
 -5927.820493 1161.352999 477425.7885
 -7592.267987 1021.832154 477402.5394
 -8599.996743 813.3279689 477385.8501
 8599.99673 -813.3279762 477385.8501
 7592.268028 -1021.832104 477402.5394
 5927.820429 -1161.353065 477425.7885
 3762.722266 -1247.394472 477447.544
 1288.915565 -1288.915659 477460.5206
 -1288.915563 -1288.915552 477460.5206
 -3762.722271 -1247.394566 477447.544
 -5927.820423 -1161.352993 477425.7885
 -7592.268031 -1021.832148 477402.5394
 -8599.996729 -813.3279625 477385.8501
 8543.318862 -2096.629576 477382.9565
 7347.104381 -3002.933029 477398.0244
 5743.834339 -3399.543109 477417.3465
 3643.514847 -3643.514921 477436.1956
 1247.394562 -3762.722176 477447.544
 -1247.394564 -3762.722272 477447.544
 -3643.514842 -3643.514836 477436.1956
 -5743.834344 -3399.543172 477417.3465
 -7347.104378 -3002.932994 477398.0244
 -8543.318863 -2096.629584 477382.9565
 0 0 0
 6625.512921 -5126.819403 477390.5001
 5385.820969 -5385.821006 477403.2438
 3399.54317 -5743.834277 477417.3465
 1161.353001 -5927.820494 477425.7885
 -1161.352999 -5927.820419 477425.7885
 -3399.543174 -5743.834341 477417.3465
 -5385.820965 -5385.820962 477403.2438
 -6625.512923 -5126.819421 477390.5001
 0 0 -0
 0 0 0
 6336.169856 -6336.169859 477379.9087
 5126.819423 -6625.512901 477390.5001
 3002.933 -7347.104412 477398.0244
 1021.832148 -7592.267982 477402.5394
 -1021.832149 -7592.268028 477402.5394
 -3002.932997 -7347.104376 477398.0244
 -5126.819425 -6625.512919 477390.5001
 -6336.169856 -6336.169853 477379.9087
 0 0 -0
 0 0 0
 0 0 0
 0 0 0
 2096.629587 -8543.31885 477382.9565
 813.3279667 -8599.99674 477385.8501
 -813.3279663 -8599.996726 477385.8501
 -2096.629587 -8543.318859 477382.9565
 0 0 -0
 0 0 -0
 0 0 -0
 0 0 0
 0 0 0
 0 0 0
 1596.883184 6516.397359 477416.8596
 619.2863146 6557.277164 477418.5689
 -619.2863143 6557.277173 477418.5689
 -1596.883184 6516.397353 477416.8596
 0 0 -0
 0 0 -0
 0 0 -0
 0 0 0
 4834.549694 4834.549691 477415.0454
 3907.481015 5049.232855 477421.3109
 2286.09524 5596.137407 477425.7307
 777.411231 5780.357418 477428.3762
 -777.4112318 5780.357389 477428.3762
 -2286.095238 5596.13743 477425.7307
 -3907.481016 5049.232843 477421.3109
 -4834.549693 4834.549695 477415.0454
 0 0 -0
 0 0 0
 5049.232866 3907.481003 477421.3109
 4099.898786 4099.898795 477428.7936
 2585.037931 4368.546422 477437.0165
 882.5657161 4506.297721 477441.9186
 -882.5657148 4506.297771 477441.9186
 -2585.037934 4368.546379 477437.0165
 -4099.898783 4099.898824 477428.7936
 -5049.232868 3907.480991 477421.3109
 0 0 -0
 6516.397367 1596.883175 477416.8596
 5596.137402 2286.095247 477425.7307
 4368.546445 2585.037905 477437.0165
 2768.082424 2768.082442 477447.9519
 947.1478853 2857.329215 477454.5108
 -947.147887 2857.329146 477454.5108
 -2768.08242 2768.082502 477447.9519
 -4368.54645 2585.037861 477437.0165
 -5596.137399 2286.095272 477425.7307
 -6516.397367 1596.883169 477416.8596
 6557.277165 619.2863148 477418.5689
 5780.357434 777.4112087 477428.3762
 4506.29771 882.5657351 477441.9186
 2857.329241 947.1478534 477454.5108
 978.2533762 978.2533935 477461.9957
 -978.2533742 978.2534743 477461.9957
 -2857.329246 947.1477819 477454.5108
 -4506.297704 882.5657896 477441.9186
 -5780.357438 777.4111758 477428.3762
 -6557.277164 619.2863253 477418.5689
 6557.277181 -619.2863254 477418.5689
 5780.357386 -777.4112206 477428.3762
 4506.297789 -882.5657444 477441.9186
 2857.329138 -947.1478663 477454.5108
 978.2534946 -978.2534023 477461.9957
 -978.2534968 -978.2534871 477461.9957
 -2857.329132 -947.1477912 477454.5108
 -4506.297794 -882.5658016 477441.9186
 -5780.357382 -777.411186 477428.3762
 -6557.277182 -619.2863363 477418.5689
 6516.397357 -1596.883186 477416.8596
 5596.13744 -2286.095256 477425.7307
 4368.546379 -2585.03792 477437.0165
 2768.082513 -2768.082448 477447.9519
 947.1477812 -2857.329231 477454.5108
 -947.147779 -2857.329152 477454.5108
 -2768.082519 -2768.082517 477447.9519
 -4368.546373 -2585.037869 477437.0165
 -5596.137443 -2286.095285 477425.7307
 -6516.397357 -1596.883179 477416.8596
 0 0 0
 5049.232848 -3907.481016 477421.3109
 4099.89883 -4099.898801 477428.7936
 2585.037866 -4368.546439 477437.0165
 882.5657946 -4506.297725 477441.9186
 -882.5657965 -4506.297788 477441.9186
 -2585.037861 -4368.546385 477437.0165
 -4099.898835 -4099.898838 477428.7936
 -5049.232846 -3907.481001 477421.3109
 0 0 -0
 0 0 0
 4834.5497 -4834.549701 477415.0454
 3907.480997 -5049.232868 477421.3109
 2286.095276 -5596.137413 477425.7307
 777.411184 -5780.357434 477428.3762
 -777.4111828 -5780.357395 477428.3762
 -2286.095279 -5596.137445 477425.7307
 -3907.480995 -5049.232853 477421.3109
 -4834.549701 -4834.549706 477415.0454
 0 0 -0
 0 0 0
 0 0 0
 0 0 0
 1596.883175 -6516.397371 477416.8596
 619.2863294 -6557.277173 477418.5689
 -619.2863297 -6557.277185 477418.5689
 -1596.883174 -6516.397363 477416.8596
 0 0 -0
 0 0 -0
 0 0 -0
 0 0 0
 0 0 0
 0 0 0
 1220.623345 4984.150236 477436.4247
 473.2227455 5013.793224 477437.4401
 -473.2227457 5013.793218 477437.4401
 -1220.623345 4984.15024 477436.4247
 0 0 -0
 0 0 -0
 0 0 -0
 0 0 0
 3699.082154 3699.082137 477435.341
 2986.59516 3859.000096 477439.0638
 1745.683141 4274.489676 477441.6746
 593.3018467 4413.191694 477443.2354
 -593.3018459 4413.191713 477443.2354
 -1745.683143 4274.489661 477441.6746
 -2986.595159 3859.000104 477439.0638
 -3699.082155 3699.082134 477435.341
 0 0 -0
 0 0 0
 3859.0001 2986.595157 477439.0638
 3129.849101 3129.849064 477443.4829
 1971.207705 3331.641602 477448.3069
 672.5670507 3434.768763 477451.1717
 -672.5670519 3434.76873 477451.1717
 -1971.207702 3331.641631 477448.3069
 -3129.849104 3129.849044 477443.4829
 -3859.000099 2986.595166 477439.0638
 0 0 -0
 4984.150246 1220.623338 477436.4247
 4274.489707 1745.683105 477441.6746
 3331.641587 1971.207726 477448.3069
 2108.445165 2108.445112 477454.6892
 720.9602055 2175.119072 477458.5012
 -720.960204 2175.119119 477458.5012
 -2108.445168 2108.44507 477454.6892
 -3331.641583 1971.207757 477448.3069
 -4274.489709 1745.683087 477441.6746
 -4984.150246 1220.623342 477436.4247
 5013.793243 473.2227222 477437.4401
 4413.19169 593.3018613 477443.2354
 3434.768804 672.5669957 477451.1717
 2175.119051 720.9602364 477458.5012
 744.1856339 744.1855809 477462.8401
 -744.1856353 744.1855248 477462.8401
 -2175.119047 720.9602866 477458.5012
 -3434.768808 672.5669566 477451.1717
 -4413.191688 593.3018854 477443.2354
 -5013.793244 473.2227145 477437.4401
 5013.793228 -473.2227499 477437.4401
 4413.19174 -593.301888 477443.2354
 3434.768723 -672.5670248 477451.1717
 2175.119158 -720.9602621 477458.5012
 744.1855113 -744.1856108 477462.8401
 -744.1855099 -744.1855505 477462.8401
 -2175.119161 -720.960316 477458.5012
 -3434.768719 -672.5669832 477451.1717
 -4413.191742 -593.3019135 477443.2354
 -5013.793227 -473.2227418 477437.4401
 4984.150256 -1220.623364 477436.4247
 4274.489668 -1745.683134 477441.6746
 3331.641656 -1971.20775 477448.3069
 2108.445071 -2108.445144 477454.6892
 720.9603143 -2175.119095 477458.5012
 -720.9603157 -2175.119152 477458.5012
 -2108.445068 -2108.445094 477454.6892
 -3331.641659 -1971.207788 477448.3069
 -4274.489666 -1745.683113 477441.6746
 -4984.150256 -1220.62337 477436.4247
 0 0 0
 3859.000119 -2986.595183 477439.0638
 3129.849055 -3129.849096 477443.4829
 1971.207775 -3331.641624 477448.3069
 672.5669671 -3434.768797 477451.1717
 -672.5669659 -3434.768751 477451.1717
 -1971.207778 -3331.641664 477448.3069
 -3129.849052 -3129.849069 477443.4829
 -3859.000121 -2986.595194 477439.0638
 0 0 -0
 0 0 0
 3699.082148 -3699.082165 477435.341
 2986.59518 -3859.000121 477439.0638
 1745.683101 -4274.489708 477441.6746
 593.3018978 -4413.191716 477443.2354
 -593.3018986 -4413.191745 477443.2354
 -1745.6831 -4274.489685 477441.6746
 -2986.595181 -3859.000133 477439.0638
 -3699.082148 -3699.082161 477435.341
 0 0 -0
 0 0 0
 0 0 0
 0 0 0
 1220.623355 -4984.150263 477436.4247
 473.2227293 -5013.793253 477437.4401
 -473.222729 -5013.793244 477437.4401
 -1220.623356 -4984.150269 477436.4247
 0 0 -0
 0 0 -0
 0 0 -0
 0 0 0
 0 0 0
 0 0 0
 939.0089435 3834.192293 477447.6815
 363.9283855 3855.899829 477448.2913
 -363.9283853 3855.899834 477448.2913
 -939.0089439 3834.19229 477447.6815
 0 0 -0
 0 0 -0
 0 0 -0
 0 0 0
 2846.666124 2846.666106 477447.0277
 2296.131004 2966.711173 477449.2619
 1341.119057 3284.193857 477450.8213
 455.5856191 3389.264123 477451.7532
 -455.5856198 3389.264106 477451.7532
 -1341.119056 3284.19387 477450.8213
 -2296.131005 2966.711166 477449.2619
 -2846.666123 2846.666108 477447.0277
 0 0 -0
 0 0 0
 2966.711201 2296.130974 477449.2619
 2403.507349 2403.507346 477451.9008