# OOMMF OVF 2.0
#
# Segment count: 1
#
# Begin: Segment
# Begin: Header
#
# Title: Oxs_MinDriver::Magnetization
# Desc: Oxs vector field output
# Desc:  MIF source file: F:/Bogdan/UNIC/2022/Master_degree/Simulation_samples/Cylinder0_5000 1.mif
# Desc:  Iteration: 1432, State id: 10466
# Desc:  Stage: 2, Stage iteration: 75
# Desc:  Stage simulation time: 0 s
# Desc:  Total simulation time: -2 s
# meshunit: m
# meshtype: rectangular
# xbase: -8.9999999999999995e-09
# ybase: -8.9999999999999995e-09
# zbase: -8.6999999999999998e-08
# xnodes: 10
# ynodes: 10
# znodes: 88
# xstepsize: 2.0000000000000001e-09
# ystepsize: 2.0000000000000001e-09
# zstepsize: 2.0000000000000001e-09
# xmin: -1e-08
# ymin: -1e-08
# zmin: -8.7999999999999994e-08
# xmax: 1e-08
# ymax: 1e-08
# zmax: 8.800000000000002e-08
# valuedim: 3
# valuelabels: Magnetization_x Magnetization_y Magnetization_z
# valueunits: A/m A/m A/m
#
# End: Header
#
# Begin: Data Text
 0 0 0
 0 0 0
 0 0 0
 9181.724525 34978.06537 476092.5353
 3468.76127 35228.53461 476149.9652
 -3468.76127 35228.53461 476149.9652
 -9181.724524 34978.06537 476092.5353
 0 0 -0
 0 0 -0
 0 0 -0
 0 0 0
 25957.04258 25957.04167 476050.7696
 20686.37962 27088.34089 476245.91
 12230.39061 29492.00719 476395.3299
 4137.178864 30169.36538 476491.9353
 -4137.178863 30169.36537 476491.9353
 -12230.39062 29492.0072 476395.3299
 -20686.37962 27088.34089 476245.91
 -25957.04258 25957.04167 476050.7696
 0 0 -0
 0 0 0
 27088.34179 20686.37871 476245.91
 21406.60294 21406.60201 476503.2907
 13301.73167 22388.63518 476753.274
 4504.239226 22834.82988 476896.3762
 -4504.239227 22834.82989 476896.3762
 -13301.73167 22388.63517 476753.274
 -21406.60294 21406.60202 476503.2907
 -27088.34179 20686.37871 476245.91
 0 0 -0
 34978.06628 9181.723617 476092.5353
 29492.00812 12230.38969 476395.3299
 22388.63609 13301.73076 476753.274
 13898.72119 13898.72024 477059.2441
 4705.806852 14168.05909 477230.5447
 -4705.806851 14168.05907 477230.5447
 -13898.72119 13898.72025 477059.2441
 -22388.63609 13301.73074 476753.274
 -29492.00812 12230.3897 476395.3299
 -34978.06628 9181.723614 476092.5353
 35228.53552 3468.760356 476149.9651
 30169.3663 4137.177944 476491.9353
 22834.83081 4504.23828 476896.3762
 14168.06002 4705.805936 477230.5447
 4796.493438 4796.492483 477415.8131
 -4796.493439 4796.492498 477415.8131
 -14168.06001 4705.80592 477230.5447
 -22834.83081 4504.238295 476896.3762
 -30169.3663 4137.177933 476491.9353
 -35228.53552 3468.76036 476149.9651
 35228.53553 -3468.762188 476149.9651
 30169.36629 -4137.17979 476491.9353
 22834.83083 -4504.240147 476896.3762
 14168.06 -4705.807812 477230.5446
 4796.49345 -4796.494367 477415.8131
 -4796.493448 -4796.494385 477415.8131
 -14168.06 -4705.807794 477230.5446
 -22834.83082 -4504.240163 476896.3762
 -30169.36629 -4137.179778 476491.9353
 -35228.53553 -3468.762192 476149.9651
 34978.06628 -9181.725437 476092.5352
 29492.00813 -12230.39153 476395.3298
 22388.63608 -13301.73261 476753.2739
 13898.7212 -13898.72211 477059.2441
 4705.80684 -14168.06096 477230.5446
 -4705.806841 -14168.06094 477230.5446
 -13898.7212 -13898.72213 477059.2441
 -22388.63608 -13301.73259 476753.2739
 -29492.00812 -12230.39154 476395.3298
 -34978.06628 -9181.725435 476092.5352
 0 0 0
 27088.3418 -20686.38054 476245.9099
 21406.60296 -21406.60386 476503.2906
 13301.73166 -22388.63702 476753.2739
 4504.239239 -22834.83174 476896.3761
 -4504.239238 -22834.83175 476896.3761
 -13301.73166 -22388.63701 476753.2739
 -21406.60295 -21406.60387 476503.2906
 -27088.3418 -20686.38054 476245.9099
 0 0 -0
 0 0 0
 25957.04259 -25957.04349 476050.7695
 20686.37962 -27088.34271 476245.9099
 12230.39063 -29492.00903 476395.3298
 4137.178854 -30169.36721 476491.9352
 -4137.178855 -30169.36721 476491.9352
 -12230.39062 -29492.00904 476395.3298
 -20686.37962 -27088.34271 476245.9099
 -25957.04259 -25957.04349 476050.7695
 0 0 -0
 0 0 0
 0 0 0
 0 0 0
 9181.724527 -34978.06719 476092.5352
 3468.761276 -35228.53643 476149.965
 -3468.761275 -35228.53643 476149.965
 -9181.724527 -34978.06719 476092.5352
 0 0 -0
 0 0 -0
 0 0 -0
 0 0 0
 0 0 0
 0 0 0
 7772.377866 30493.02583 476425.8986
 2996.250307 30722.51283 476465.1309
 -2996.250306 30722.51283 476465.1309
 -7772.377868 30493.02583 476425.8986
 0 0 -0
 0 0 -0
 0 0 -0
 0 0 0
 22592.7453 22592.74442 476393.7521
 18220.38294 23653.56197 476529.5352
 10746.38155 26054.5358 476631.459
 3655.316571 26803.29859 476697.0664
 -3655.316574 26803.29861 476697.0664
 -10746.38154 26054.53579 476631.459
 -18220.38294 23653.56198 476529.5352
 -22592.74529 22592.74442 476393.7521
 0 0 -0
 0 0 0
 23653.56286 18220.38204 476529.5352
 19016.85968 19016.8588 476705.978
 11908.22839 20064.22501 476893.5859
 4048.208929 20560.94221 477003.9108
 -4048.208925 20560.94218 477003.9108
 -11908.2284 20064.22504 476893.5859
 -19016.85967 19016.85878 476705.978
 -23653.56286 18220.38205 476529.5352
 0 0 -0
 30493.02672 7772.376983 476425.8985
 26054.53668 10746.38066 476631.459
 20064.22594 11908.22746 476893.5859
 12559.39804 12559.39717 477133.5184
 4268.116702 12856.30823 477271.7987
 -4268.116705 12856.30826 477271.7987
 -12559.39803 12559.39714 477133.5184
 -20064.22594 11908.2275 476893.5859
 -26054.53668 10746.38064 476631.459
 -30493.02672 7772.376989 476425.8985
 30722.51372 2996.249416 476465.1309
 26803.29949 3655.315664 476697.0664
 20560.9431 4048.208061 477003.9108
 12856.30916 4268.115733 477271.7987
 4367.568889 4367.568005 477424.0463
 -4367.568886 4367.567961 477424.0463
 -12856.30916 4268.11578 477271.7987
 -20560.9431 4048.208018 477003.9108
 -26803.29949 3655.315694 476697.0664
 -30722.51372 2996.249406 476465.1309
 30722.51371 -2996.251197 476465.1309
 26803.29951 -3655.317461 476697.0664
 20560.94307 -4048.209871 477003.9108
 12856.30919 -4268.117557 477271.7986
 4367.568856 -4367.569839 477424.0463
 -4367.568859 -4367.569788 477424.0463
 -12856.30919 -4268.117609 477271.7986
 -20560.94308 -4048.209825 477003.9108
 -26803.29951 -3655.317493 476697.0664
 -30722.51371 -2996.251187 476465.1309
 30493.02673 -7772.378757 476425.8985
 26054.53667 -10746.38245 476631.459
 20064.22597 -11908.22927 476893.5858
 12559.39801 -12559.39899 477133.5183
 4268.116735 -12856.31004 477271.7986
 -4268.116732 -12856.3101 477271.7986
 -12559.39802 -12559.39894 477133.5183
 -20064.22596 -11908.22932 476893.5858
 -26054.53667 -10746.38242 476631.459
 -30493.02673 -7772.378764 476425.8985
 0 0 0
 23653.56288 -18220.38383 476529.5352
 19016.85967 -19016.86059 476705.9779
 11908.22843 -20064.22682 476893.5858
 4048.208898 -20560.94402 477003.9108
 -4048.208902 -20560.94398 477003.9108
 -11908.22842 -20064.22686 476893.5858
 -19016.85967 -19016.86056 476705.9779
 -23653.56288 -18220.38385 476529.5352
 0 0 -0
 0 0 0
 22592.74531 -22592.74619 476393.752
 18220.38296 -23653.56375 476529.5351
 10746.38153 -26054.53759 476631.4589
 3655.316595 -26803.30038 476697.0663
 -3655.316592 -26803.3004 476697.0663
 -10746.38154 -26054.53756 476631.4589
 -18220.38295 -23653.56376 476529.5351
 -22592.74531 -22592.74619 476393.752
 0 0 -0
 0 0 0
 0 0 0
 0 0 0
 7772.377878 -30493.02761 476425.8984
 2996.250303 -30722.51461 476465.1308
 -2996.250303 -30722.5146 476465.1308
 -7772.377876 -30493.02761 476425.8984
 0 0 -0
 0 0 -0
 0 0 -0
 0 0 0
 0 0 0
 0 0 0
 6275.724364 25059.89528 476764.6046
 2432.705726 25253.14215 476789.505
 -2432.705727 25253.14216 476789.505
 -6275.724361 25059.89527 476764.6046
 0 0 -0
 0 0 -0
 0 0 -0
 0 0 0
 18561.41098 18561.41013 476741.8792
 15037.89055 19464.63909 476830.0127
 8855.004317 21550.91417 476895.1859
 3017.342919 22243.45622 476936.0498
 -3017.342914 22243.4562 476936.0498
 -8855.004326 21550.9142 476895.1859
 -15037.89055 19464.63908 476830.0127
 -18561.41098 18561.41014 476741.8792
 0 0 -0
 0 0 0
 19464.63992 15037.88971 476830.0126
 15782.35896 15782.35808 476942.0359
 9939.610456 16764.63198 477066.0568
 3389.792681 17249.85362 477140.2552
 -3389.792687 17249.85367 477140.2552
 -9939.610443 16764.63194 477066.0568
 -15782.35897 15782.35812 476942.0359
 -19464.63992 15037.8897 476830.0126
 0 0 -0
 25059.89612 6275.723521 476764.6046
 21550.91505 8855.003445 476895.1858
 16764.6328 9939.609635 477066.0568
 10573.78371 10573.78279 477229.7785
 3607.134277 10871.09475 477326.5959
 -3607.134272 10871.0947 477326.5959
 -10573.78372 10573.78285 477229.7785
 -16764.63279 9939.609586 477066.0568
 -21550.91505 8855.003477 476895.1858
 -25059.89612 6275.723513 476764.6046
 25253.14301 2432.70487 476789.5049
 22243.45706 3017.342083 476936.0498
 17249.85451 3389.791766 477140.2552
 10871.09559 3607.13347 477326.5959
 3707.704456 3707.703543 477435.2073
 -3707.70446 3707.703608 477435.2073
 -10871.09558 3607.133403 477326.5959
 -17249.85452 3389.791826 477140.2552
 -22243.45706 3017.342042 476936.0498
 -25253.14301 2432.704884 476789.5049
 25253.14301 -2432.706576 476789.5049
 22243.45706 -3017.343798 476936.0497
 17249.85453 -3389.793498 477140.2552
 10871.09556 -3607.135212 477326.5959
 3707.704494 -3707.705286 477435.2073
 -3707.704489 -3707.705363 477435.2073
 -10871.09557 -3607.135138 477326.5959
 -17249.85452 -3389.793563 477140.2552
 -22243.45706 -3017.343755 476936.0497
 -25253.14301 -2432.706591 476789.5049
 25059.89613 -6275.725218 476764.6046
 21550.91506 -8855.005164 476895.1858
 16764.63278 -9939.611355 477066.0568
 10573.78375 -10573.78453 477229.7785
 3607.134238 -10871.0965 477326.5959
 -3607.134245 -10871.09642 477326.5959
 -10573.78373 -10573.7846 477229.7785
 -16764.63279 -9939.611295 477066.0568
 -21550.91506 -8855.0052 476895.1858
 -25059.89613 -6275.725209 476764.6046
 0 0 0
 19464.63993 -15037.89142 476830.0126
 15782.35899 -15782.35981 476942.0358
 9939.610425 -16764.6337 477066.0567
 3389.792718 -17249.85535 477140.2552
 -3389.792711 -17249.85541 477140.2552
 -9939.610438 -16764.63364 477066.0567
 -15782.35898 -15782.35985 476942.0358
 -19464.63993 -15037.8914 476830.0126
 0 0 -0
 0 0 0
 18561.411 -18561.41184 476741.8791
 15037.89056 -19464.64079 476830.0126
 8855.004344 -21550.91589 476895.1858
 3017.342897 -22243.45794 476936.0497
 -3017.342901 -22243.4579 476936.0497
 -8855.004335 -21550.91592 476895.1858
 -15037.89056 -19464.64077 476830.0126
 -18561.411 -18561.41184 476741.8791
 0 0 -0
 0 0 0
 0 0 0
 0 0 0
 6275.724366 -25059.89699 476764.6045
 2432.705736 -25253.14385 476789.5049
 -2432.705735 -25253.14387 476789.5049
 -6275.724369 -25059.89698 476764.6045
 0 0 -0
 0 0 -0
 0 0 -0
 0 0 0
 0 0 0
 0 0 0
 4939.165034 19926.23972 477022.4533
 1916.863087 20078.00013 477037.8086
 -1916.863086 20078.00012 477037.8086
 -4939.165036 19926.23972 477022.4533
 0 0 -0
 0 0 -0
 0 0 -0
 0 0 0
 14760.68935 14760.68856 477007.4585
 11971.60855 15481.23304 477062.7666
 7038.690534 17173.07567 477103.1478
 2398.773435 17749.52234 477127.9405
 -2398.773441 17749.52237 477127.9405
 -7038.690523 17173.07564 477103.1478
 -11971.60856 15481.23305 477062.7666
 -14760.68935 14760.68856 477007.4585
 0 0 -0
 0 0 0
 15481.23386 11971.60773 477062.7666
 12593.56365 12593.56287 477131.7173
 7953.006938 13424.41266 477208.9753
 2716.869855 13844.906 477255.496
 -2716.869848 13844.90595 477255.496
 -7953.006954 13424.4127 477208.9753
 -12593.56364 12593.56284 477131.7173
 -15481.23386 11971.60775 477062.7666
 0 0 -0
 19926.24054 4939.164225 477022.4532
 17173.07645 7038.68975 477103.1477
 13424.41351 7953.006086 477208.9753
 8504.797524 8504.796738 477312.4848
 2908.597527 8769.443145 477374.5995
 -2908.597535 8769.443202 477374.5995
 -8504.797507 8504.79668 477312.4848
 -13424.41352 7953.006137 477208.9753
 -17173.07645 7038.689717 477103.1477
 -19926.24054 4939.164233 477022.4532
 20078.00093 1916.862291 477037.8086
 17749.52318 2398.772591 477127.9405
 13844.90679 2716.869075 477255.496
 8769.443989 2908.59667 477374.5995
 2999.264531 2999.263726 477445.1593
 -2999.264523 2999.263656 477445.1593
 -8769.444005 2908.59674 477374.5995
 -13844.90678 2716.869013 477255.496
 -17749.52318 2398.772633 477127.9405
 -20078.00093 1916.862277 477037.8086
 20078.00094 -1916.863911 477037.8086
 17749.52317 -2398.774219 477127.9405
 13844.90679 -2716.870715 477255.496
 8769.444022 -2908.598314 477374.5995
 2999.264491 -2999.265385 477445.1593
 -2999.264499 -2999.265301 477445.1593
 -8769.444005 -2908.598394 477374.5995
 -13844.9068 -2716.870647 477255.496
 -17749.52316 -2398.774264 477127.9405
 -20078.00094 -1916.863896 477037.8086
 19926.24054 -4939.165839 477022.4532
 17173.07646 -7038.691376 477103.1477
 13424.41353 -7953.007719 477208.9753
 8504.797494 -8504.798388 477312.4848
 2908.597565 -8769.444778 477374.5994
 -2908.597556 -8769.444867 477374.5994
 -8504.797513 -8504.798307 477312.4848
 -13424.41351 -7953.007784 477208.9753
 -17173.07647 -7038.691337 477103.1477
 -19926.24054 -4939.165848 477022.4532
 0 0 0
 15481.23388 -11971.60936 477062.7666
 12593.56364 -12593.5645 477131.7172
 7953.006972 -13424.41429 477208.9753
 2716.869828 -13844.90765 477255.496
 -2716.869836 -13844.90758 477255.496
 -7953.006953 -13424.41435 477208.9753
 -12593.56366 -12593.56445 477131.7172
 -15481.23387 -11971.60938 477062.7666
 0 0 -0
 0 0 0
 14760.68938 -14760.69018 477007.4584
 11971.60858 -15481.23466 477062.7666
 7038.690523 -17173.0773 477103.1477
 2398.773454 -17749.52396 477127.9405
 -2398.773448 -17749.52401 477127.9405
 -7038.690535 -17173.07726 477103.1477
 -11971.60857 -15481.23468 477062.7666
 -14760.68938 -14760.69018 477007.4584
 0 0 -0
 0 0 0
 0 0 0
 0 0 0
 4939.165048 -19926.24135 477022.4532
 1916.863086 -20078.00175 477037.8085
 -1916.863088 -20078.00174 477037.8085
 -4939.165045 -19926.24136 477022.4532
 0 0 -0
 0 0 -0
 0 0 -0
 0 0 0
 0 0 0
 0 0 0
 3825.038472 15529.1881 477196.0653
 1484.677913 15643.13476 477205.3639
 -1484.677914 15643.13477 477205.3639
 -3825.038469 15529.18809 477196.0653
 0 0 -0
 0 0 -0
 0 0 -0
 0 0 0
 11506.23291 11506.23215 477186.6349
 9329.028543 12059.53599 477220.5026
 5476.480314 13384.09482 477244.9533
 1865.561316 13838.50509 477259.7686
 -1865.56131 13838.50507 477259.7686
 -5476.480325 13384.09485 477244.9533
 -9329.028535 12059.53598 477220.5026
 -11506.23291 11506.23215 477186.6349
 0 0 -0
 0 0 0
 12059.53673 9329.027796 477220.5026
 9817.576895 9817.576099 477262.0891
 6204.412053 10478.74449 477308.6763
 2120.70059 10817.32271 477336.7359
 -2120.700598 10817.32275 477336.7359
 -6204.412034 10478.74445 477308.6763
 -9817.576911 9817.576127 477262.0891
 -12059.53673 9329.027783 477220.5026
 0 0 -0
 15529.18886 3825.037721 477196.0652
 13384.09562 5476.479521 477244.9533
 10478.74523 6204.411312 477308.6763
 6650.815295 6650.814502 477371.3488
 2277.199796 6867.73052 477409.1745
 -2277.199786 6867.730476 477409.1745
 -6650.815317 6650.814546 477371.3488
 -10478.74521 6204.411273 477308.6763
 -13384.09563 5476.479547 477244.9533
 -15529.18885 3825.037715 477196.0652
 15643.13554 1484.677135 477205.3639
 13838.50584 1865.560578 477259.7686
 10817.32351 2120.69979 477336.7359
 6867.731291 2277.199028 477409.1745
 2352.216372 2352.21559 477452.4117
 -2352.216382 2352.215644 477452.4117
 -6867.731268 2277.198974 477409.1745
 -10817.32353 2120.699838 477336.7359
 -13838.50583 1865.560546 477259.7686
 -15643.13555 1484.677145 477205.3639
 15643.13554 -1484.678667 477205.3639
 13838.50585 -1865.56212 477259.7686
 10817.32352 -2120.701336 477336.7359
 6867.731259 -2277.200587 477409.1745
 2352.21641 -2352.217143 477452.4117
 -2352.216399 -2352.21721 477452.4117
 -6867.731283 -2277.200522 477409.1745
 -10817.3235 -2120.701391 477336.7359
 -13838.50586 -1865.562084 477259.7686
 -15643.13554 -1484.678679 477205.3639
 15529.18887 -3825.03925 477196.0652
 13384.09563 -5476.481056 477244.9533
 10478.74522 -6204.412865 477308.6763
 6650.815328 -6650.816045 477371.3487
 2277.199768 -6867.73209 477409.1745
 -2277.19978 -6867.732014 477409.1745
 -6650.815301 -6650.816115 477371.3487
 -10478.74525 -6204.412809 477308.6763
 -13384.09561 -5476.481089 477244.9533
 -15529.18887 -3825.039242 477196.0652
 0 0 0
 12059.53675 -9329.029342 477220.5026
 9817.576919 -9817.577634 477262.0891
 6204.412037 -10478.74605 477308.6763
 2120.700608 -10817.32425 477336.7359
 -2120.700597 -10817.32432 477336.7359
 -6204.412061 -10478.74599 477308.6763
 -9817.576898 -9817.577678 477262.0891
 -12059.53676 -9329.029324 477220.5026
 0 0 -0
 0 0 0
 11506.23294 -11506.23368 477186.6349
 9329.028554 -12059.53753 477220.5026
 5476.480334 -13384.09636 477244.9533
 1865.561312 -13838.50665 477259.7686
 -1865.561319 -13838.5066 477259.7686
 -5476.480319 -13384.0964 477244.9533
 -9329.028563 -12059.53751 477220.5026
 -11506.23294 -11506.23369 477186.6349
 0 0 -0
 0 0 0
 0 0 0
 0 0 0
 3825.03848 -15529.18965 477196.0652
 1484.677918 -15643.1363 477205.3639
 -1484.677915 -15643.13632 477205.3639
 -3825.038483 -15529.18964 477196.0652
 0 0 -0
 0 0 -0
 0 0 -0
 0 0 0
 0 0 0
 0 0 0
 2933.622634 11958.44471 477305.2071
 1138.520932 12041.92071 477310.7659
 -1138.52093 12041.92071 477310.7659
 -2933.622637 11958.44472 477305.2071
 0 0 -0
 0 0 -0
 0 0 -0
 0 0 0
 8862.961025 8862.960314 477299.4523
 7179.656049 9279.228633 477319.8296
 4208.446861 10297.2096 477334.3982
 1432.698467 10645.58259 477343.1577
 -1432.698472 10645.5826 477343.1577
 -4208.446849 10297.20959 477334.3982
 -7179.656057 9279.228639 477319.8296
 -8862.961022 8862.960312 477299.4523
 0 0 -0
 0 0 0
 9279.229363 7179.655312 477319.8296
 7551.185163 7551.184459 477344.5616
 4770.357465 8060.062143 477372.1299
 1630.343178 8321.752013 477388.6904
 -1630.343169 8321.751999 477388.6904
 -4770.357486 8060.062157 477372.1299
 -7551.185143 7551.184447 477344.5616
 -9279.229372 7179.655317 477319.8296
 0 0 -0
 11958.44545 2933.621905 477305.2071
 10297.21031 4208.446165 477334.3982
 8060.062889 4770.356705 477372.1299
 5116.713376 5116.712655 477409.1639
 1752.352409 5285.927209 477431.5234
 -1752.35242 5285.927222 477431.5234
 -5116.713349 5116.71264 477409.1639
 -8060.062917 4770.35672 477372.1299
 -10297.2103 4208.446155 477334.3982
 -11958.44545 2933.621907 477305.2071
 12041.92144 1138.520224 477310.7658
 10645.58333 1432.697699 477343.1577
 8321.752746 1630.342481 477388.6904
 5285.927941 1752.35166 477431.5234
 1811.192844 1811.192106 477457.1294
 -1811.192831 1811.19209 477457.1294
 -5285.927971 1752.351677 477431.5234
 -8321.752714 1630.342465 477388.6904
 -10645.58335 1432.697711 477343.1577
 -12041.92144 1138.520219 477310.7658
 12041.92144 -1138.521678 477310.7658
 10645.58335 -1432.699159 477343.1577
 8321.752724 -1630.343946 477388.6904
 5285.92797 -1752.353133 477431.5234
 1811.192831 -1811.193582 477457.1294
 -1811.192845 -1811.193559 477457.1294
 -5285.927936 -1752.353157 477431.5234
 -8321.752759 -1630.343925 477388.6904
 -10645.58332 -1432.699174 477343.1577
 -12041.92145 -1138.521673 477310.7658
 11958.44546 -2933.623355 477305.2071
 10297.21031 -4208.447623 477334.3982
 8060.062917 -4770.358174 477372.1299
 5116.713358 -5116.714124 477409.1639
 1752.352415 -5285.928676 477431.5234
 -1752.3524 -5285.92871 477431.5234
 -5116.713392 -5116.714093 477409.1639
 -8060.062882 -4770.3582 477372.1299
 -10297.21033 -4208.447608 477334.3982
 -11958.44546 -2933.623359 477305.2071
 0 0 0
 9279.229387 -7179.656778 477319.8296
 7551.185161 -7551.185922 477344.5616
 4770.357485 -8060.063612 477372.1299
 1630.343182 -8321.753491 477388.6904
 -1630.343195 -8321.753455 477388.6904
 -4770.357456 -8060.063644 477372.1299
 -7551.185188 -7551.185899 477344.5616
 -9279.229375 -7179.656787 477319.8296
 0 0 -0
 0 0 0
 8862.961054 -8862.961775 477299.4523
 7179.656073 -9279.230094 477319.8296
 4208.446863 -10297.21106 477334.3982
 1432.698466 -10645.58406 477343.1577
 -1432.698458 -10645.58408 477343.1577
 -4208.44688 -10297.21104 477334.3982
 -7179.656061 -9279.230105 477319.8296
 -8862.961058 -8862.961771 477299.4523
 0 0 -0
 0 0 0
 0 0 0
 0 0 0
 2933.622646 -11958.44619 477305.2071
 1138.520938 -12041.92219 477310.7658
 -1138.52094 -12041.92218 477310.7658
 -2933.622642 -11958.44619 477305.2071
 0 0 -0
 0 0 -0
 0 0 -0
 0 0 0
 0 0 0
 0 0 0
 2239.479325 9152.553903 477371.0159
 868.9281119 9213.057586 477374.3142
 -868.9281133 9213.057585 477374.3142
 -2239.479322 9152.553904 477371.0159
 0 0 -0
 0 0 -0
 0 0 -0
 0 0 0
 6785.373598 6785.372915 477367.5614
 5490.898719 7095.67749 477379.6945
 3214.248438 7871.049997 477388.2974
 1093.506478 8134.630581 477393.4471
 -1093.506473 8134.630586 477393.4471
 -3214.24845 7871.049994 477388.2974
 -5490.89871 7095.677492 477379.6945
 -6785.373602 6785.372915 477367.5614
 0 0 -0
 0 0 0
 7095.678183 5490.898032 477379.6945
 5769.116121 5769.115425 477394.2877
 3641.348374 6154.333547 477410.4482
 1243.91846 6352.430839 477420.1196
 -1243.918469 6352.430824 477420.1196
 -3641.348352 6154.333559 477410.4482
 -5769.116142 5769.115416 477394.2877
 -7095.678172 5490.898036 477379.6945
 0 0 -0
 9152.554607 2239.478646 477371.0159
 7871.050684 3214.247722 477388.2974
 6154.334254 3641.347702 477410.4482
 3904.282846 3904.282138 477432.0731
 1336.732609 4032.814916 477445.0972
 -1336.732597 4032.814946 477445.0972
 -3904.282875 3904.282112 477432.0731
 -6154.334221 3641.34772 477410.4482
 -7871.050705 3214.247711 477388.2974
 -9152.554601 2239.478649 477371.0159
 9213.058283 868.9274019 477374.3142
 8134.631298 1093.505825 477393.4471
 6352.431523 1243.917715 477420.1196
 4032.815631 1336.731935 477445.0972
 1381.538367 1381.537666 477460.0025
 -1381.538381 1381.537624 477460.0025
 -4032.815596 1336.731972 477445.0972
 -6352.431562 1243.917686 477420.1196
 -8134.63127 1093.505842 477393.4471
 -9213.058292 868.9273965 477374.3142
 9213.058296 -868.9287925 477374.3142
 8134.631277 -1093.507218 477393.4471
 6352.431552 -1243.919116 477420.1196
 4032.815621 -1336.733336 477445.0972
 1381.538351 -1381.539075 477460.0025
 -1381.538335 -1381.539028 477460.0025
 -4032.81566 -1336.733377 477445.0972
 -6352.431508 -1243.919085 477420.1196
 -8134.631308 -1093.507236 477393.4471
 -9213.058285 -868.9287867 477374.3142
 9152.554613 -2239.480031 477371.0158
 7871.050712 -3214.24912 477388.2974
 6154.334238 -3641.349097 477410.4482
 3904.282858 -3904.283548 477432.0731
 1336.73263 -4032.816317 477445.0972
 -1336.732646 -4032.816356 477445.0972
 -3904.282819 -3904.283513 477432.0731
 -6154.334281 -3641.349121 477410.4482
 -7871.050684 -3214.249106 477388.2974
 -9152.55462 -2239.480034 477371.0158
 0 0 0
 7095.678193 -5490.899432 477379.6944
 5769.116148 -5769.11683 477394.2877
 3641.348377 -6154.334944 477410.4482
 1243.918444 -6352.432251 477420.1196
 -1243.91843 -6352.432225 477420.1196
 -3641.348409 -6154.334965 477410.4482
 -5769.116116 -5769.116816 477394.2877
 -7095.678208 -5490.899437 477379.6944
 0 0 -0
 0 0 0
 6785.373633 -6785.374315 477367.5614
 5490.898733 -7095.678885 477379.6944
 3214.248449 -7871.051406 477388.2974
 1093.506493 -8134.631983 477393.4471
 -1093.506501 -8134.631995 477393.4471
 -3214.24843 -7871.051397 477388.2974
 -5490.898746 -7095.678889 477379.6944
 -6785.373627 -6785.374313 477367.5614
 0 0 -0
 0 0 0
 0 0 0
 0 0 0
 2239.479336 -9152.555314 477371.0158
 868.9281124 -9213.058995 477374.3141
 -868.9281098 -9213.058991 477374.3141
 -2239.479341 -9152.555316 477371.0158
 0 0 -0
 0 0 -0
 0 0 -0
 0 0 0
 0 0 0
 0 0 0
 1708.674251 6993.999548 477409.7147
 662.7937972 7037.791525 477411.6688
 -662.7937956 7037.791531 477411.6688
 -1708.674253 6993.999544 477409.7147
 0 0 -0
 0 0 -0
 0 0 -0
 0 0 0
 5186.694485 5186.693821 477407.6536
 4192.740699 5417.601421 477414.8529
 2451.530211 6006.572792 477419.9225
 833.4988837 6205.133486 477422.9497
 -833.4988887 6205.133464 477422.9497
 -2451.530199 6006.57281 477419.9225
 -4192.740707 5417.601411 477414.8529
 -5186.694481 5186.693824 477407.6536
 0 0 -0
 0 0 0
 5417.602076 4192.740034 477414.8529
 4400.034164 4400.033483 477423.4501
 2774.250126 4689.838781 477432.9065
 947.1464039 4838.545078 477438.5434
 -947.1463951 4838.545123 477438.5434
 -2774.250147 4689.838741 477432.9065
 -4400.034142 4400.033512 477423.4501
 -5417.602087 4192.740021 477414.8529
 0 0 -0
 6994.00022 1708.673584 477409.7147
 6006.573485 2451.529553 477419.9225
 4689.839439 2774.249441 477432.9065
 2972.032626 2972.031954 477445.4999
 1016.991741 3068.510716 477453.0566
 -1016.991752 3068.510639 477453.0566
 -2972.032598 2972.032024 477445.4999
 -4689.83947 2774.249386 477432.9065
 -6006.573464 2451.529585 477419.9225
 -6994.000226 1708.673575 477409.7147
 7037.79221 662.7931357 477411.6688
 6205.134145 833.4981852 477422.9497
 4838.545777 947.1457666 477438.5434
 3068.511377 1016.991038 477453.0566
 1050.644065 1050.643377 477461.6881
 -1050.644052 1050.643487 477461.6881
 -3068.51141 1016.990939 477453.0566
 -4838.545739 947.1458454 477438.5434
 -6205.134173 833.4981359 477422.9497
 -7037.792201 662.7931516 477411.6688
 7037.79221 -662.7944775 477411.6688
 6205.13416 -833.4995372 477422.9497
 4838.545775 -947.147111 477438.5434
 3068.511363 -1016.992402 477453.0566
 1050.64411 -1050.644724 477461.6881
 -1050.644125 -1050.644855 477461.6881
 -3068.511325 -1016.992284 477453.0566
 -4838.545817 -947.1472031 477438.5434
 -6205.134129 -833.4994807 477422.9497
 -7037.79222 -662.7944954 477411.6688
 6994.000235 -1708.674925 477409.7147
 6006.573484 -2451.53089 477419.9225
 4689.839453 -2774.250811 477432.9065
 2972.032641 -2972.033288 477445.4999
 1016.991705 -3068.512099 477453.0566
 -1016.99169 -3068.51197 477453.0566
 -2972.032679 -2972.033402 477445.4999
 -4689.839411 -2774.250725 477432.9065
 -6006.573512 -2451.530938 477419.9225
 -6994.000228 -1708.674914 477409.7147
 0 0 0
 5417.602101 -4192.741398 477414.8529
 4400.034171 -4400.034817 477423.4501
 2774.250128 -4689.840164 477432.9065
 947.1464322 -4838.546406 477438.5434
 -947.1464448 -4838.546508 477438.5434
 -2774.250097 -4689.840077 477432.9065
 -4400.034201 -4400.034876 477423.4501
 -5417.602086 -4192.741373 477414.8529
 0 0 -0
 0 0 0
 5186.694515 -5186.695169 477407.6536
 4192.740721 -5417.602782 477414.8529
 2451.530222 -6006.574131 477419.9225
 833.4988729 -6205.134867 477422.9497
 -833.498865 -6205.134805 477422.9497
 -2451.53024 -6006.574181 477419.9225
 -4192.740709 -5417.602757 477414.8529
 -5186.69452 -5186.695178 477407.6536
 0 0 -0
 0 0 0
 0 0 0
 0 0 0
 1708.674262 -6994.000919 477409.7147
 662.7938059 -7037.792879 477411.6688
 -662.793808 -7037.792899 477411.6688
 -1708.674258 -6994.000907 477409.7147
 0 0 -0
 0 0 -0
 0 0 -0
 0 0 0
 0 0 0
 0 0 0
 1307.470363 5355.727307 477432.1711
 507.019772 5387.579921 477433.3338
 -507.0197731 5387.57991 477433.3338
 -1307.47036 5355.727314 477432.1711
 0 0 -0
 0 0 -0
 0 0 -0
 0 0 0
 3973.046935 3973.04629 477430.9386
 3208.425866 4145.452966 477435.2234
 1874.246135 4593.611296 477438.2235
 636.8736835 4743.406585 477440.0128
 -636.8736793 4743.406625 477440.0128
 -1874.246144 4593.611264 477438.2235
 -3208.425859 4145.452984 477435.2234
 -3973.046938 3973.046284 477430.9386
 0 0 -0
 0 0 0
 4145.453627 3208.425206 477435.2234
 3363.128538 3363.127898 477440.3104
 2118.185631 3581.26913 477445.8703
 722.7144743 3692.846558 477449.172
 -722.7144811 3692.846481 477449.172
 -2118.185615 3581.269198 477445.8703
 -3363.128555 3363.127848 477440.3104
 -4145.453619 3208.425229 477435.2234
 0 0 -0
 5355.727975 1307.469711 477432.1711
 4593.611943 1874.245482 477438.2235
 3581.26981 2118.184961 477445.8703
 2266.801427 2266.800784 477453.238
 775.1696206 2339.046119 477457.6413
 -775.1696117 2339.046244 477457.6413
 -2266.801449 2266.800671 477453.238
 -3581.269786 2118.185049 477445.8703
 -4593.611959 1874.245429 477438.2235
 -5355.727971 1307.469725 477432.1711
 5387.580584 507.0191158 477433.3338
 4743.407262 636.8730276 477440.0128
 3692.847203 722.713816 477449.172
 2339.04681 775.1689449 477457.6413
 800.3570526 800.3564206 477462.6584
 -800.3570628 800.3562457 477462.6584
 -2339.046784 775.1691033 477457.6413
 -3692.847233 722.7136906 477449.172
 -4743.40724 636.8731062 477440.0128
 -5387.580591 507.0190903 477433.3338
 5387.580581 -507.0204339 477433.3338
 4743.407288 -636.8743425 477440.0127
 3692.847166 -722.7151472 477449.172
 2339.046871 -775.1702611 477457.6413
 800.3569704 -800.3577645 477462.6584
 -800.3569588 -800.3575551 477462.6584
 -2339.046899 -775.1704493 477457.6413
 -3692.847133 -722.7150005 477449.172
 -4743.407311 -636.8744326 477440.0127
 -5387.580573 -507.0204053 477433.3338
 5355.727991 -1307.471021 477432.1711
 4593.611936 -1874.246814 477438.2235
 3581.269847 -2118.186268 477445.8703
 2266.801386 -2266.802139 477453.238
 775.1696883 -2339.04741 477457.6413
 -775.1696997 -2339.04762 477457.6413
 -2266.801357 -2266.801953 477453.238
 -3581.269879 -2118.186407 477445.8703
 -4593.611915 -1874.246735 477438.2235
 -5355.727996 -1307.47104 477432.1711
 0 0 0
 4145.453653 -3208.426526 477435.2234
 3363.128537 -3363.129244 477440.3104
 2118.185667 -3581.270428 477445.8703
 722.7144329 -3692.847932 477449.172
 -722.7144233 -3692.847761 477449.172
 -2118.185689 -3581.270575 477445.8703
 -3363.128514 -3363.129144 477440.3104
 -4145.453664 -3208.426568 477435.2234
 0 0 -0
 0 0 0
 3973.046965 -3973.04762 477430.9386
 3208.425891 -4145.454281 477435.2234
 1874.24613 -4593.612649 477438.2235
 636.8737119 -4743.407888 477440.0127
 -636.8737174 -4743.407995 477440.0127
 -1874.246117 -4593.612564 477438.2235
 -3208.4259 -4145.454324 477435.2234
 -3973.046961 -3973.047605 477430.9386
 0 0 -0
 0 0 0
 0 0 0
 0 0 0
 1307.470378 -5355.728641 477432.1711
 507.0197683 -5387.581268 477433.3338
 -507.0197666 -5387.581234 477433.3338
 -1307.47038 -5355.728662 477432.1711
 0 0 -0
 0 0 -0
 0 0 -0
 0 0 0
 0 0 0
 0 0 0
 1006.220093 4122.10324 477445.1456
 390.0829665 4145.487325 477445.8441
 -390.0829657 4145.487343 477445.8441
 -1006.220094 4122.103228 477445.1456
 0 0 -0
 0 0 -0
 0 0 -0
 0 0 0
 3058.939062 3058.938419 477444.4021
 2467.947639 3188.57441 477446.9746
 1440.641227 3531.332261 477448.7675
 489.3044085 3644.957296 477449.8363
 -489.3044111 3644.957235 477449.8363
 -1440.641221 3531.33231 477448.7675
 -2467.947643 3188.574384 477446.9746
 -3058.93906 3058.938429 477444.4021
 0 0 -0
 0 0 0