# OOMMF OVF 2.0
#
# Segment count: 1
#
# Begin: Segment
# Begin: Header
#
# Title: Oxs_MinDriver::Magnetization
# Desc: Oxs vector field output
# Desc:  MIF source file: F:/Bogdan/UNIC/2022/Master_degree/Simulation_samples/Cylinder0_5000 1.mif
# Desc:  Iteration: 1507, State id: 10620
# Desc:  Stage: 3, Stage iteration: 74
# Desc:  Stage simulation time: 0 s
# Desc:  Total simulation time: -2 s
# meshunit: m
# meshtype: rectangular
# xbase: -8.9999999999999995e-09
# ybase: -8.9999999999999995e-09
# zbase: -8.6999999999999998e-08
# xnodes: 10
# ynodes: 10
# znodes: 88
# xstepsize: 2.0000000000000001e-09
# ystepsize: 2.0000000000000001e-09
# zstepsize: 2.0000000000000001e-09
# xmin: -1e-08
# ymin: -1e-08
# zmin: -8.7999999999999994e-08
# xmax: 1e-08
# ymax: 1e-08
# zmax: 8.800000000000002e-08
# valuedim: 3
# valuelabels: Magnetization_x Magnetization_y Magnetization_z
# valueunits: A/m A/m A/m
#
# End: Header
#
# Begin: Data Text
 0 0 0
 0 0 0
 0 0 0
 8784.247669 33313.38505 476219.4102
 3314.008247 33548.88767 476272.3599
 -3314.008246 33548.88767 476272.3599
 -8784.247669 33313.38505 476219.4102
 0 0 -0
 0 0 -0
 0 0 -0
 0 0 0
 24731.5748 24731.57462 476181.2362
 19687.80644 25796.65217 476359.942
 11645.94816 28050.53534 476497.0206
 3938.298451 28675.18349 476585.8736
 -3938.298452 28675.18349 476585.8736
 -11645.94816 28050.53534 476497.0206
 -19687.80644 25796.65217 476359.942
 -24731.5748 24731.57462 476181.2362
 0 0 -0
 0 0 0
 25796.65236 19687.80625 476359.942
 20349.91404 20349.91385 476595.8805
 12632.65566 21254.84555 476823.3623
 4275.377628 21661.26773 476953.2282
 -4275.377627 21661.26774 476953.2282
 -12632.65566 21254.84555 476823.3623
 -20349.91404 20349.91385 476595.8805
 -25796.65236 19687.80625 476359.942
 0 0 -0
 33313.38523 8784.247483 476219.4102
 28050.53554 11645.94797 476497.0206
 21254.84573 12632.65548 476823.3623
 13176.97813 13176.97793 477100.2052
 4458.326971 13420.48934 477254.5286
 -4458.326972 13420.48934 477254.5286
 -13176.97813 13176.97793 477100.2052
 -21254.84573 12632.65548 476823.3623
 -28050.53553 11645.94797 476497.0206
 -33313.38523 8784.247483 476219.4102
 33548.88786 3314.008058 476272.3599
 28675.18367 3938.298265 476585.8736
 21661.26794 4275.377429 476953.2282
 13420.48952 4458.326791 477254.5286
 4540.003563 4540.003354 477420.8291
 -4540.003562 4540.003351 477420.8291
 -13420.48952 4458.326794 477254.5286
 -21661.26794 4275.377425 476953.2282
 -28675.18367 3938.298268 476585.8736
 -33548.88786 3314.008056 476272.3599
 33548.88785 -3314.008434 476272.3599
 28675.18368 -3938.298644 476585.8736
 21661.26792 -4275.377814 476953.2282
 13420.48955 -4458.327173 477254.5286
 4540.003529 -4540.003745 477420.8291
 -4540.00353 -4540.003735 477420.8291
 -13420.48955 -4458.327183 477254.5286
 -21661.26792 -4275.377806 476953.2282
 -28675.18368 -3938.298649 476585.8736
 -33548.88786 -3314.008433 476272.3599
 33313.38524 -8784.247857 476219.4102
 28050.53552 -11645.94835 476497.0206
 21254.84575 -12632.65586 476823.3623
 13176.97811 -13176.97832 477100.2052
 4458.327002 -13420.48972 477254.5286
 -4458.327001 -13420.48973 477254.5286
 -13176.97811 -13176.97831 477100.2052
 -21254.84575 -12632.65587 476823.3623
 -28050.53553 -11645.94834 476497.0206
 -33313.38524 -8784.247858 476219.4102
 0 0 0
 25796.65236 -19687.80663 476359.9419
 20349.91403 -20349.91423 476595.8805
 12632.65568 -21254.84592 476823.3623
 4275.377605 -21661.26813 476953.2282
 -4275.377606 -21661.26811 476953.2282
 -12632.65568 -21254.84594 476823.3623
 -20349.91403 -20349.91422 476595.8805
 -25796.65236 -19687.80663 476359.9419
 0 0 -0
 0 0 0
 24731.57481 -24731.57499 476181.2362
 19687.80644 -25796.65254 476359.9419
 11645.94815 -28050.53572 476497.0206
 3938.298465 -28675.18386 476585.8736
 -3938.298465 -28675.18387 476585.8736
 -11645.94815 -28050.53571 476497.0206
 -19687.80644 -25796.65255 476359.9419
 -24731.57481 -24731.57499 476181.2362
 0 0 -0
 0 0 0
 0 0 0
 0 0 0
 8784.247672 -33313.38542 476219.4102
 3314.008243 -33548.88805 476272.3598
 -3314.008243 -33548.88804 476272.3598
 -8784.247672 -33313.38542 476219.4102
 0 0 -0
 0 0 -0
 0 0 -0
 0 0 0
 0 0 0
 0 0 0
 7404.475842 28946.79679 476528.2027
 2852.944847 29163.63034 476563.967
 -2852.944848 29163.63034 476563.967
 -7404.475841 28946.79679 476528.2027
 0 0 -0
 0 0 -0
 0 0 -0
 0 0 0
 21453.90981 21453.90964 476499.0355
 17293.119 22455.1457 476622.0576
 10204.54661 24717.01522 476714.5977
 3470.961338 25416.85317 476774.3778
 -3470.961337 25416.85318 476774.3778
 -10204.54662 24717.01521 476714.5977
 -17293.119 22455.1457 476622.0576
 -21453.90981 21453.90964 476499.0355
 0 0 -0
 0 0 0
 22455.14589 17293.11881 476622.0576
 18036.29071 18036.29055 476782.189
 11287.25016 19011.68896 476951.8057
 3835.753578 19471.11735 477051.3954
 -3835.75358 19471.11733 477051.3954
 -11287.25015 19011.68898 476951.8057
 -18036.29071 18036.29054 476782.189
 -22455.14589 17293.11881 476622.0576
 0 0 -0
 28946.79697 7404.475657 476528.2027
 24717.01538 10204.54645 476714.5977
 19011.68919 11287.24994 476951.8057
 11888.94034 11888.9402 477167.8714
 4038.132933 12161.52638 477292.0092
 -4038.13293 12161.5264 477292.0092
 -11888.94034 11888.94019 477167.8714
 -19011.68918 11287.24994 476951.8057
 -24717.01538 10204.54645 476714.5977
 -28946.79697 7404.475656 476528.2027
 29163.63052 2852.944668 476563.967
 25416.85338 3470.961139 476774.3778
 19471.11749 3835.75342 477051.3954
 12161.52663 4038.132704 477292.0092
 4129.085163 4129.085024 477428.2905
 -4129.085166 4129.085029 477428.2905
 -12161.52662 4038.132697 477292.0092
 -19471.11749 3835.753428 477051.3954
 -25416.85338 3470.961132 476774.3778
 -29163.63052 2852.944671 476563.967
 29163.63053 -2852.945034 476563.967
 25416.85334 -3470.961511 476774.3778
 19471.11756 -3835.753787 477051.3954
 12161.52653 -4038.133087 477292.0092
 4129.085267 -4129.08539 477428.2905
 -4129.085264 -4129.085415 477428.2905
 -12161.52654 -4038.133063 477292.0092
 -19471.11755 -3835.753807 477051.3954
 -25416.85334 -3470.961498 476774.3778
 -29163.63053 -2852.945038 476563.967
 28946.79697 -7404.476023 476528.2027
 24717.01542 -10204.54681 476714.5977
 19011.68913 -11287.25033 476951.8057
 11888.94042 -11888.94055 477167.8714
 4038.13284 -12161.52678 477292.0092
 -4038.132842 -12161.52674 477292.0092
 -11888.94042 -11888.94058 477167.8714
 -19011.68913 -11287.2503 476951.8057
 -24717.01541 -10204.54682 476714.5977
 -28946.79697 -7404.476019 476528.2027
 0 0 0
 22455.14588 -17293.11919 476622.0576
 18036.29075 -18036.2909 476782.189
 11287.25009 -19011.68936 476951.8057
 3835.753649 -19471.11769 477051.3954
 -3835.753647 -19471.11773 477051.3954
 -11287.2501 -19011.68932 476951.8057
 -18036.29075 -18036.29093 476782.189
 -22455.14588 -17293.11918 476622.0576
 0 0 -0
 0 0 0
 21453.90982 -21453.91 476499.0355
 17293.11899 -22455.14607 476622.0576
 10204.54665 -24717.01557 476714.5977
 3470.961296 -25416.85356 476774.3778
 -3470.961297 -25416.85353 476774.3778
 -10204.54665 -24717.01559 476714.5977
 -17293.11899 -22455.14606 476622.0576
 -21453.90982 -21453.91 476499.0355
 0 0 -0
 0 0 0
 0 0 0
 0 0 0
 7404.475835 -28946.79716 476528.2027
 2852.944861 -29163.6307 476563.967
 -2852.944861 -29163.63071 476563.967
 -7404.475835 -28946.79715 476528.2027
 0 0 -0
 0 0 -0
 0 0 -0
 0 0 0
 0 0 0
 0 0 0
 5952.562348 23696.42168 476838.461
 2306.835808 23879.37511 476860.9077
 -2306.835808 23879.37512 476860.9077
 -5952.562349 23696.42167 476838.461
 0 0 -0
 0 0 -0
 0 0 -0
 0 0 0
 17556.69793 17556.69775 476817.9905
 14220.77365 18409.04024 476896.9995
 8378.369563 20373.154 476955.5627
 2855.274879 21022.91822 476992.4062
 -2855.274881 21022.91819 476992.4062
 -8378.369559 20373.15402 476955.5627
 -14220.77365 18409.04023 476896.9995
 -17556.69793 17556.69775 476817.9905
 0 0 -0
 0 0 0
 18409.04039 14220.77349 476896.9995
 14919.14593 14919.14571 476997.599
 9393.213579 15838.20482 477108.7823
 3202.881457 16290.55455 477175.262
 -3202.881455 16290.55458 477175.262
 -9393.213585 15838.20479 477108.7823
 -14919.14593 14919.14572 476997.599
 -18409.0404 14220.77349 476896.9995
 0 0 -0
 23696.42184 5952.56218 476838.461
 20373.15422 8378.369358 476955.5627
 15838.20493 9393.213457 477108.7823
 9983.613873 9983.613617 477255.2003
 3404.662134 10259.33719 477341.6235
 -3404.662137 10259.33717 477341.6235
 -9983.613867 9983.613633 477255.2003
 -15838.20493 9393.213449 477108.7823
 -20373.15422 8378.36936 476955.5627
 -23696.42184 5952.562181 476838.461
 23879.3753 2306.835624 476860.9076
 21022.91834 2855.274733 476992.4062
 16290.5548 3202.881225 477175.262
 10259.33728 3404.662031 477341.6235
 3497.664884 3497.664618 477438.3772
 -3497.664881 3497.664618 477438.3772
 -10259.33729 3404.662033 477341.6235
 -16290.5548 3202.88122 477175.262
 -21022.91835 2855.274739 476992.4062
 -23879.3753 2306.835622 476860.9076
 23879.37528 -2306.835976 476860.9076
 21022.91841 -2855.275082 476992.4062
 16290.55469 -3202.881589 477175.262
 10259.33743 -3404.662378 477341.6235
 3497.664713 -3497.66499 477438.3772
 -3497.664715 -3497.664965 477438.3772
 -10259.33743 -3404.662403 477341.6235
 -16290.55469 -3202.881568 477175.262
 -21022.91841 -2855.275096 476992.4062
 -23879.37528 -2306.835972 476860.9076
 23696.42185 -5952.562528 476838.461
 20373.15416 -8378.36972 476955.5627
 15838.20503 -9393.213793 477108.7822
 9983.613739 -9983.614001 477255.2003
 3404.662286 -10259.33752 477341.6235
 -3404.662284 -10259.33756 477341.6235
 -9983.613743 -9983.613962 477255.2003
 -15838.20502 -9393.213823 477108.7822
 -20373.15417 -8378.369703 476955.5627
 -23696.42185 -5952.562532 476838.461
 0 0 0
 18409.04042 -14220.77384 476896.9995
 14919.14586 -14919.14608 476997.599
 9393.21368 -15838.20514 477108.7822
 3202.881342 -16290.55494 477175.262
 -3202.881343 -16290.55489 477175.262
 -9393.213677 -15838.20518 477108.7822
 -14919.14587 -14919.14606 476997.599
 -18409.04042 -14220.77385 476896.9995
 0 0 -0
 0 0 0
 17556.69792 -17556.6981 476817.9904
 14220.77368 -18409.04058 476896.9995
 8378.369507 -20373.15438 476955.5627
 2855.27495 -21022.91854 476992.4062
 -2855.274949 -21022.91857 476992.4062
 -8378.369509 -20373.15435 476955.5627
 -14220.77368 -18409.04059 476896.9995
 -17556.69792 -17556.6981 476817.9904
 0 0 -0
 0 0 0
 0 0 0
 0 0 0
 5952.562363 -23696.42202 476838.461
 2306.835787 -23879.37547 476860.9076
 -2306.835787 -23879.37546 476860.9076
 -5952.562363 -23696.42203 476838.461
 0 0 -0
 0 0 -0
 0 0 -0
 0 0 0
 0 0 0
 0 0 0
 4665.955882 18769.57855 477072.1152
 1810.471748 18913.12312 477085.828
 -1810.471749 18913.12311 477085.828
 -4665.955881 18769.57856 477072.1152
 0 0 -0
 0 0 -0
 0 0 -0
 0 0 0
 13908.09853 13908.09837 477058.6975
 11278.95729 14586.60178 477107.8363
 6635.290247 16175.28613 477143.7984
 2261.706173 16715.81527 477165.9434
 -2261.706172 16715.81531 477165.9434
 -6635.290249 16175.28611 477143.7984
 -11278.95729 14586.60179 477107.8363
 -13908.09853 13908.09837 477058.6975
 0 0 -0
 0 0 0
 14586.60197 11278.9571 477107.8363
 11862.57668 11862.57657 477169.1837
 7490.681497 12640.25987 477237.8703
 2558.779082 13033.07348 477279.2295
 -2558.779083 13033.07344 477279.2295
 -7490.681495 12640.25991 477237.8703
 -11862.57668 11862.57655 477169.1837
 -14586.60197 11278.95711 477107.8363
 0 0 -0
 18769.57873 4665.955707 477072.1152
 16175.28625 6635.290123 477143.7984
 12640.26012 7490.681252 477237.8703
 8005.492533 8005.492469 477329.7555
 2737.327647 8251.877326 477384.8394
 -2737.327646 8251.877362 477384.8394
 -8005.492534 8005.49244 477329.7555
 -12640.26013 7490.68127 477237.8703
 -16175.28625 6635.290115 477143.7984
 -18769.57873 4665.955709 477072.1152
 18913.12327 1810.471597 477085.828
 16715.8155 2261.705958 477165.9434
 13033.07355 2558.778996 477279.2295
 8251.877611 2737.327368 477384.8394
 2821.575387 2821.575338 477447.3256
 -2821.575386 2821.575319 477447.3256
 -8251.877613 2737.327383 477384.8394
 -13033.07355 2558.778988 477279.2295
 -16715.8155 2261.705961 477165.9434
 -18913.12327 1810.471596 477085.828
 18913.1233 -1810.471929 477085.828
 16715.81542 -2261.706296 477165.9434
 13033.07369 -2558.779326 477279.2295
 8251.877421 -2737.327716 477384.8394
 2821.575605 -2821.575666 477447.3256
 -2821.575606 -2821.57567 477447.3256
 -8251.877418 -2737.327712 477384.8394
 -13033.0737 -2558.779332 477279.2295
 -16715.81541 -2261.706292 477165.9434
 -18913.1233 -1810.47193 477085.828
 18769.57872 -4665.95604 477072.1152
 16175.28632 -6635.290448 477143.7984
 12640.26001 -7490.681605 477237.8703
 8005.492701 -8005.492782 477329.7555
 2737.327454 -8251.877694 477384.8394
 -2737.327453 -8251.877671 477384.8394
 -8005.492703 -8005.492802 477329.7555
 -12640.26 -7490.68159 477237.8703
 -16175.28632 -6635.290457 477143.7984
 -18769.57872 -4665.956038 477072.1152
 0 0 0
 14586.60194 -11278.95744 477107.8363
 11862.57677 -11862.57689 477169.1837
 7490.681373 -12640.26024 477237.8703
 2558.77923 -13033.07378 477279.2295
 -2558.77923 -13033.07381 477279.2295
 -7490.681372 -12640.26021 477237.8703
 -11862.57677 -11862.57691 477169.1837
 -14586.60193 -11278.95743 477107.8363
 0 0 -0
 0 0 0
 13908.09855 -13908.0987 477058.6975
 11278.95725 -14586.60212 477107.8363
 6635.29032 -16175.28645 477143.7984
 2261.706084 -16715.81564 477165.9433
 -2261.706084 -16715.81561 477165.9433
 -6635.29032 -16175.28647 477143.7984
 -11278.95725 -14586.60211 477107.8363
 -13908.09855 -13908.09871 477058.6975
 0 0 -0
 0 0 0
 0 0 0
 0 0 0
 4665.955866 -18769.57889 477072.1152
 1810.471777 -18913.12345 477085.828
 -1810.471777 -18913.12346 477085.828
 -4665.955866 -18769.57889 477072.1152
 0 0 -0
 0 0 -0
 0 0 -0
 0 0 0
 0 0 0
 0 0 0
 3600.576601 14576.16352 477227.8728
 1397.28725 14683.66128 477236.1145
 -1397.28725 14683.66129 477236.1145
 -3600.576601 14576.16351 477227.8728
 0 0 -0
 0 0 -0
 0 0 -0
 0 0 0
 10803.61962 10803.61946 477219.4829
 8758.74859 11323.02805 477249.3527
 5144.79313 12562.93655 477270.966
 1752.936201 12988.04717 477284.0969
 -1752.936201 12988.04713 477284.0969
 -5144.793132 12562.93658 477270.966
 -8758.748589 11323.02803 477249.3527
 -10803.61962 10803.61946 477219.4829
 0 0 -0
 0 0 0
 11323.02817 8758.748461 477249.3527
 9216.288507 9216.288285 477286.0687
 5824.457536 9834.088351 477327.181
 1990.839595 10150.10055 477351.9491
 -1990.839597 10150.10061 477351.9491
 -5824.457531 9834.088304 477327.181
 -9216.288513 9216.288315 477286.0687
 -11323.02817 8758.74845 477249.3527
 0 0 -0
 14576.16366 3600.576458 477227.8728
 12562.93676 5144.79292 477270.966
 9834.088417 5824.457472 477327.181
 6240.636535 6240.636255 477382.4255
 2136.551304 6442.633905 477415.7506
 -2136.5513 6442.633843 477415.7506
 -6240.636544 6240.636308 477382.4255
 -9834.088405 5824.457434 477327.181
 -12562.93677 5144.79294 477270.966
 -14576.16366 3600.576454 477227.8728
 14683.66146 1397.287073 477236.1145
 12988.04726 1752.936108 477284.0969
 10150.10081 1990.839331 477351.9491
 6442.633932 2136.55128 477415.7506
 2206.316118 2206.315812 477453.8047
 -2206.316123 2206.315868 477453.8047
 -6442.633919 2136.551232 477415.7506
 -10150.10083 1990.839367 477351.9491
 -12988.04725 1752.936087 477284.0969
 -14683.66146 1397.28708 477236.1145
 14683.66144 -1397.287388 477236.1145
 12988.04734 -1752.93642 477284.0969
 10150.10067 -1990.839653 477351.9491
 6442.634124 -2136.551592 477415.7506
 2206.31589 -2206.316139 477453.8047
 -2206.315885 -2206.31618 477453.8047
 -6442.634138 -2136.551555 477415.7506
 -10150.10065 -1990.83968 477351.9491
 -12988.04736 -1752.936404 477284.0969
 -14683.66143 -1397.287393 477236.1145
 14576.16368 -3600.57677 477227.8728
 12562.9367 -5144.793242 477270.966
 9834.088537 -5824.457776 477327.181
 6240.636367 -6240.63659 477382.4255
 2136.551505 -6442.634204 477415.7506
 -2136.55151 -6442.634179 477415.7506
 -6240.636355 -6240.636612 477382.4255
 -9834.088552 -5824.457759 477327.181
 -12562.93668 -5144.793251 477270.966
 -14576.16368 -3600.576767 477227.8728
 0 0 0
 11323.02821 -8758.748772 477249.3527
 9216.288426 -9216.288614 477286.0687
 5824.457664 -9834.088648 477327.181
 1990.839442 -10150.10089 477351.9491
 -1990.839439 -10150.1009 477351.9491
 -5824.457671 -9834.088638 477327.181
 -9216.288418 -9216.288621 477286.0687
 -11323.02822 -8758.748769 477249.3527
 0 0 -0
 0 0 0
 10803.61962 -10803.61978 477219.4829
 8758.748629 -11323.02835 477249.3527
 5144.793059 -12562.93688 477270.966
 1752.936295 -12988.04746 477284.0969
 -1752.936296 -12988.04746 477284.0969
 -5144.793056 -12562.93688 477270.966
 -8758.748631 -11323.02835 477249.3527
 -10803.61962 -10803.61978 477219.4829
 0 0 -0
 0 0 0
 0 0 0
 0 0 0
 3600.576621 -14576.16383 477227.8728
 1397.287221 -14683.6616 477236.1145
 -1397.287221 -14683.6616 477236.1145
 -3600.576621 -14576.16383 477227.8728
 0 0 -0
 0 0 -0
 0 0 -0
 0 0 0
 0 0 0
 0 0 0
 2753.129782 11190.24547 477324.9103
 1068.260486 11268.72879 477329.8083
 -1068.260485 11268.72877 477329.8083
 -2753.129782 11190.24548 477324.9103
 0 0 -0
 0 0 -0
 0 0 -0
 0 0 0
 8296.562859 8296.562724 477319.8146
 6720.293125 8685.997828 477337.6817
 3941.573164 9635.976581 477350.4826
 1342.134206 9960.944129 477358.1984
 -1342.134207 9960.944181 477358.1984
 -3941.573159 9635.97654 477350.4826
 -6720.293129 8685.997848 477337.6817
 -8296.562857 8296.562717 477319.8146
 0 0 -0
 0 0 0
 8685.998002 6720.292949 477337.6817
 7067.237603 7067.237523 477359.382
 4464.815377 7541.500936 477383.5591
 1525.96632 7785.205507 477398.0868
 -1525.966316 7785.205424 477398.0868
 -4464.815388 7541.501006 477383.5591
 -7067.237591 7067.237475 477359.382
 -8685.998009 6720.292968 477337.6817
 0 0 -0
 11190.24563 2753.129621 477324.9103
 9635.976678 3941.573076 477350.4826
 7541.501176 4464.815128 477383.5591
 4787.036104 4787.036082 477416.0029
 1639.356715 4944.35693 477435.5843
 -1639.356722 4944.357033 477435.5843
 -4787.036086 4787.035991 477416.0029
 -7541.501198 4464.815196 477383.5591
 -9635.976661 3941.573037 477350.4826
 -11190.24563 2753.12963 477324.9103
 11268.72892 1068.260363 477329.8083
 9960.944336 1342.133983 477358.1984
 7785.205556 1525.966291 477398.0868
 4944.357214 1639.356417 477435.5843
 1694.007076 1694.007084 477457.9897
 -1694.007068 1694.006973 477457.9898
 -4944.357237 1639.356517 477435.5843
 -7785.205527 1525.966214 477398.0868
 -9960.94436 1342.13403 477358.1984
 -11268.72891 1068.260348 477329.8083
 11268.72893 -1068.260657 477329.8083
 9960.944277 -1342.134281 477358.1984
 7785.205665 -1525.966586 477398.0868
 4944.357058 -1639.356719 477435.5843
 1694.00727 -1694.007381 477457.9897
 -1694.007278 -1694.007273 477457.9897
 -4944.357034 -1639.356815 477435.5843
 -7785.205695 -1525.966512 477398.0868
 -9960.944253 -1342.134326 477358.1984
 -11268.72894 -1068.260643 477329.8083
 11190.24562 -2753.129916 477324.9103
 9635.976728 -3941.573369 477350.4826
 7541.501083 -4464.815432 477383.5591
 4787.036243 -4787.036373 477416.0029
 1639.356544 -4944.357235 477435.5843
 -1639.356537 -4944.357328 477435.5843
 -4787.036262 -4787.036292 477416.0029
 -7541.50106 -4464.815493 477383.5591
 -9635.976746 -3941.573334 477350.4826
 -11190.24561 -2753.129924 477324.9103
 0 0 0
 8685.997979 -6720.293248 477337.6817
 7067.237672 -7067.237814 477359.382
 4464.815274 -7541.501242 477383.5591
 1525.966451 -7785.205798 477398.0868
 -1525.966455 -7785.205728 477398.0868
 -4464.815262 -7541.501301 477383.5591
 -7067.237685 -7067.237773 477359.382
 -8685.997972 -6720.293265 477337.6817
 0 0 -0
 0 0 0
 8296.562874 -8296.563019 477319.8146
 6720.2931 -8685.998127 477337.6817
 3941.573225 -9635.976873 477350.4826
 1342.134127 -9960.944433 477358.1984
 -1342.134125 -9960.944475 477358.1984
 -3941.57323 -9635.976839 477350.4826
 -6720.293095 -8685.998144 477337.6817
 -8296.562876 -8296.563013 477319.8146
 0 0 -0
 0 0 0
 0 0 0
 0 0 0
 2753.129769 -11190.24577 477324.9103
 1068.260511 -11268.72908 477329.8083
 -1068.260512 -11268.72907 477329.8083
 -2753.129768 -11190.24578 477324.9103
 0 0 -0
 0 0 -0
 0 0 -0
 0 0 0
 0 0 0
 0 0 0
 2096.629209 8543.318814 477382.9565
 813.327832 8599.996409 477385.8501
 -813.3278326 8599.996432 477385.8501
 -2096.629208 8543.3188 477382.9565
 0 0 -0
 0 0 -0
 0 0 -0
 0 0 0
 6336.170208 6336.170062 477379.9087
 5126.819415 6625.513333 477390.5001
 3002.932719 7347.104297 477398.0245
 1021.832265 7592.26802 477402.5394
 -1021.832263 7592.267948 477402.5394
 -3002.932725 7347.104354 477398.0244
 -5126.819409 6625.513304 477390.5001
 -6336.170211 6336.170072 477379.9087
 0 0 -0
 0 0 0
 6625.513445 5126.819305 477390.5001
 5385.820933 5385.82073 477403.2438
 3399.543271 5743.833805 477417.3465
 1161.353059 5927.820168 477425.7885
 -1161.353065 5927.820286 477425.7885
 -3399.543257 5743.833704 477417.3465
 -5385.820949 5385.820801 477403.2438
 -6625.513436 5126.819275 477390.5001
 0 0 -0
 8543.318942 2096.629087 477382.9565
 7347.104482 3002.93252 477398.0244
 5743.833859 3399.543231 477417.3465
 3643.514985 3643.514722 477436.1956
 1247.394634 3762.722252 477447.5439
 -1247.394626 3762.722097 477447.544
 -3643.515008 3643.51486 477436.1956
 -5743.83383 3399.543127 477417.3465
 -7347.104503 3002.932581 477398.0244
 -8543.318936 2096.629072 477382.9565
 8599.996565 813.3276682 477385.8501
 7592.268107 1021.832204 477402.5394
 5927.820401 1161.352798 477425.7885
 3762.722263 1247.394644 477447.5439
 1288.915081 1288.914783 477460.5206
 -1288.915092 1288.914961 477460.5206
 -3762.722234 1247.394484 477447.544
 -5927.820437 1161.352923 477425.7885
 -7592.268077 1021.832127 477402.5394
 -8599.996576 813.3276931 477385.8501
 8599.996557 -813.3279458 477385.8501
 7592.268138 -1021.832482 477402.5394
 5927.82034 -1161.353077 477425.7885
 3762.722358 -1247.394925 477447.5439
 1288.914953 -1288.915061 477460.5206
 -1288.914942 -1288.915245 477460.5206
 -3762.722388 -1247.394761 477447.5439
 -5927.820304 -1161.353205 477425.7885
 -7592.268167 -1021.832404 477402.5394
 -8599.996547 -813.3279711 477385.8501
 8543.31895 -2096.629363 477382.9565
 7347.104457 -3002.9328 477398.0244
 5743.833914 -3399.543511 477417.3465
 3643.5149 -3643.515 477436.1956
 1247.394749 -3762.722538 477447.5439
 -1247.394757 -3762.72237 477447.5439
 -3643.514877 -3643.515148 477436.1956
 -5743.833943 -3399.543399 477417.3465
 -7347.104436 -3002.932863 477398.0244
 -8543.318956 -2096.629348 477382.9565
 0 0 0
 6625.513463 -5126.819584 477390.5001
 5385.820896 -5385.82101 477403.2438
 3399.543339 -5743.834088 477417.3465
 1161.352972 -5927.820443 477425.7885
 -1161.352966 -5927.820575 477425.7885
 -3399.543353 -5743.833975 477417.3465
 -5385.82088 -5385.821087 477403.2438
 -6625.513472 -5126.819552 477390.5001
 0 0 -0
 0 0 0
 6336.170208 -6336.170341 477379.9087
 5126.819435 -6625.513612 477390.5001
 3002.932682 -7347.104575 477398.0244
 1021.832319 -7592.268304 477402.5394
 -1021.832322 -7592.268222 477402.5394
 -3002.932675 -7347.10464 477398.0244
 -5126.819441 -6625.513579 477390.5001
 -6336.170206 -6336.170352 477379.9087
 0 0 -0
 0 0 0
 0 0 0
 0 0 0
 2096.629221 -8543.319095 477382.9565
 813.3278157 -8599.996688 477385.8501
 -813.327815 -8599.996714 477385.8501
 -2096.629222 -8543.319079 477382.9565
 0 0 -0
 0 0 -0
 0 0 -0
 0 0 0
 0 0 0
 0 0 0
 1596.88318 6516.397726 477416.8596
 619.2864969 6557.277049 477418.5689
 -619.2864961 6557.27702 477418.5689
 -1596.883181 6516.397744 477416.8596
 0 0 -0
 0 0 -0
 0 0 -0
 0 0 0
 4834.550245 4834.550125 477415.0454
 3907.481122 5049.232911 477421.3109
 2286.095187 5596.137416 477425.7307
 777.4104864 5780.357219 477428.3762
 -777.4104894 5780.35731 477428.3762
 -2286.09518 5596.137342 477425.7307
 -3907.481128 5049.232949 477421.3109
 -4834.550242 4834.550111 477415.0454
 0 0 -0
 0 0 0
 5049.233063 3907.480966 477421.3109
 4099.899157 4099.899085 477428.7936
 2585.03765 4368.54566 477437.0165
 882.5656783 4506.297413 477441.9186
 -882.5656721 4506.29726 477441.9186
 -2585.037665 4368.545793 477437.0165
 -4099.899139 4099.898993 477428.7936
 -5049.233073 3907.481005 477421.3109
 0 0 -0
 6516.397867 1596.883036 477416.8596
 5596.137506 2286.095114 477425.7307
 4368.54587 2585.037425 477437.0165
 2768.082431 2768.082416 477447.9519
 947.1481366 2857.329009 477454.5108
 -947.1481459 2857.329214 477454.5108
 -2768.082406 2768.082233 477447.9519
 -4368.5459 2585.037564 477437.0165
 -5596.137483 2286.095033 477425.7307
 -6516.397874 1596.883056 477416.8596
 6557.277166 619.2863918 477418.5689
 5780.357399 777.4102789 477428.3762
 4506.297459 882.5656664 477441.9186
 2857.329264 947.147859 477454.5108
 978.2532171 978.2532389 477461.9957
 -978.2532056 978.2529985 477461.9957
 -2857.329294 947.148075 477454.5108
 -4506.297421 882.5654974 477441.9186
 -5780.357429 777.4103838 477428.3762
 -6557.277155 619.286358 477418.5689
 6557.277167 -619.2866533 477418.5689
 5780.357396 -777.4105403 477428.3762
 4506.297474 -882.5659313 477441.9186
 2857.32923 -947.1481193 477454.5108
 978.2532761 -978.2535078 477461.9957
 -978.2532874 -978.2532569 477461.9957
 -2857.3292 -947.1483442 477454.5108
 -4506.297511 -882.5657561 477441.9186
 -5780.357366 -777.4106485 477428.3762
 -6557.277178 -619.2866186 477418.5689
 6516.397869 -1596.883296 477416.8596
 5596.137512 -2286.095378 477425.7307
 4368.545857 -2585.037683 477437.0165
 2768.082464 -2768.082688 477447.9519
 947.148083 -2857.329261 477454.5108
 -947.1480739 -2857.329493 477454.5108
 -2768.082488 -2768.082483 477447.9519
 -4368.545828 -2585.037838 477437.0165
 -5596.137533 -2286.09529 477425.7307
 -6516.397863 -1596.883318 477416.8596
 0 0 0
 5049.233063 -3907.481228 477421.3109
 4099.899172 -4099.899353 477428.7936
 2585.037623 -4368.545914 477437.0165
 882.5657218 -4506.297691 477441.9186
 -882.5657275 -4506.297507 477441.9186
 -2585.037609 -4368.546072 477437.0165
 -4099.899189 -4099.899245 477428.7936
 -5049.233054 -3907.481273 477421.3109
 0 0 -0
 0 0 0
 4834.550252 -4834.550388 477415.0454
 3907.481119 -5049.233171 477421.3109
 2286.095207 -5596.137686 477425.7307
 777.4104595 -5780.357472 477428.3762
 -777.4104568 -5780.357587 477428.3762
 -2286.095213 -5596.137595 477425.7307
 -3907.481114 -5049.233217 477421.3109
 -4834.550255 -4834.550372 477415.0454
 0 0 -0
 0 0 0
 0 0 0
 0 0 0
 1596.883177 -6516.397989 477416.8596
 619.2865067 -6557.277317 477418.5689
 -619.2865074 -6557.27728 477418.5689
 -1596.883176 -6516.398012 477416.8596
 0 0 -0
 0 0 -0
 0 0 -0
 0 0 0
 0 0 0
 0 0 0
 1220.623262 4984.150279 477436.4247
 473.2225108 5013.79263 477437.4401
 -473.2225115 5013.792663 477437.4401
 -1220.623261 4984.150259 477436.4247
 0 0 -0
 0 0 -0
 0 0 -0
 0 0 0
 3699.082355 3699.082226 477435.341
 2986.595126 3858.999987 477439.0638
 1745.682654 4274.489502 477441.6746
 593.3018862 4413.191122 477443.2354
 -593.3018832 4413.191017 477443.2354
 -1745.682661 4274.489586 477441.6746
 -2986.59512 3858.999944 477439.0638
 -3699.082358 3699.082241 477435.341
 0 0 -0
 0 0 0
 3859.000088 2986.595028 477439.0638
 3129.849012 3129.848833 477443.4829
 1971.207516 3331.64146 477448.3069
 672.5666484 3434.76832 477451.1717
 -672.5666542 3434.768496 477451.1717
 -1971.207501 3331.641308 477448.3069
 -3129.849029 3129.848939 477443.4829
 -3859.000079 2986.594983 477439.0638
 0 0 -0
 4984.150395 1220.623154 477436.4247
 4274.489664 1745.682475 477441.6746
 3331.641508 1971.207484 477448.3069
 2108.445168 2108.444931 477454.6892
 720.9600725 2175.119051 477458.5012
 -720.9600637 2175.118814 477458.5012
 -2108.445191 2108.445141 477454.6892
 -3331.641481 1971.207325 477448.3069
 -4274.489685 1745.682568 477441.6746
 -4984.150389 1220.623131 477436.4247
 5013.792769 473.2223629 477437.4401
 4413.191201 593.3018384 477443.2354
 3434.768526 672.5664067 477451.1717
 2175.119057 720.960091 477458.5012
 744.1857216 744.1854482 477462.8401
 -744.1857321 744.1857256 477462.8401
 -2175.11903 720.9598422 477458.5012
 -3434.76856 672.5666007 477451.1717
 -4413.191174 593.3017184 477443.2354
 -5013.792778 473.2224014 477437.4401
 5013.792775 -473.2226093 477437.4401
 4413.191187 -593.3020873 477443.2354
 3434.768543 -672.5666521 477451.1717
 2175.11905 -720.9603443 477458.5012
 744.1857117 -744.1856917 477462.8401
 -744.1857013 -744.185981 477462.8401
 -2175.119077 -720.9600852 477458.5012
 -3434.768509 -672.5668535 477451.1717
 -4413.191213 -593.3019633 477443.2354
 -5013.792765 -473.222649 477437.4401
 4984.150393 -1220.623401 477436.4247
 4274.489677 -1745.68272 477441.6746
 3331.641498 -1971.20774 477448.3069
 2108.445173 -2108.445169 477454.6892
 720.9600838 -2175.119315 477458.5012
 -720.9600921 -2175.119048 477458.5012
 -2108.445151 -2108.445405 477454.6892
 -3331.641524 -1971.207562 477448.3069
 -4274.489657 -1745.682822 477441.6746
 -4984.150399 -1220.623376 477436.4247
 0 0 0
 3859.000088 -2986.595279 477439.0638
 3129.849019 -3129.849074 477443.4829
 1971.207518 -3331.641721 477448.3069
 672.5666374 -3434.768552 477451.1717
 -672.5666321 -3434.768764 477451.1717
 -1971.207532 -3331.64154 477448.3069
 -3129.849004 -3129.849199 477443.4829
 -3859.000096 -2986.595228 477439.0638
 0 0 -0
 0 0 0
 3699.082362 -3699.082473 477435.341
 2986.595128 -3859.000239 477439.0638
 1745.682653 -4274.489742 477441.6746
 593.3018955 -4413.191384 477443.2354
 -593.3018981 -4413.191253 477443.2354
 -1745.682647 -4274.489847 477441.6746
 -2986.595134 -3859.000186 477439.0638
 -3699.082359 -3699.082492 477435.341
 0 0 -0
 0 0 0
 0 0 0
 0 0 0
 1220.623265 -4984.150532 477436.4247
 473.2225083 -5013.792876 477437.4401
 -473.2225076 -5013.792918 477437.4401
 -1220.623266 -4984.150506 477436.4247
 0 0 -0
 0 0 -0
 0 0 -0
 0 0 0
 0 0 0
 0 0 0
 939.0089656 3834.192566 477447.6815
 363.9284929 3855.899819 477448.2913
 -363.9284922 3855.899786 477448.2913
 -939.0089668 3834.192587 477447.6815
 0 0 -0
 0 0 -0
 0 0 -0
 0 0 0
 2846.666491 2846.666384 477447.0277
 2296.131216 2966.711227 477449.2619
 1341.119152 3284.193926 477450.8213
 455.5850283 3389.26399 477451.7532
 -455.5850309 3389.264095 477451.7532
 -1341.119146 3284.193842 477450.8213
 -2296.131221 2966.71127 477449.2619
 -2846.666489 2846.666369 477447.0277
 0 0 -0
 0 0 0
 2966.711364 2296.131075 477449.2619