# OOMMF OVF 2.0
#
# Segment count: 1
#
# Begin: Segment
# Begin: Header
#
# Title: Oxs_MinDriver::Magnetization
# Desc: Oxs vector field output
# Desc:  MIF source file: F:/Bogdan/UNIC/2022/Master_degree/Simulation_samples/Cylinder0_5000 1.mif
# Desc:  Iteration: 803, State id: 5370
# Desc:  Stage: 0, Stage iteration: 803
# Desc:  Stage simulation time: -1 s
# Desc:  Total simulation time: -2 s
# meshunit: m
# meshtype: rectangular
# xbase: -8.9999999999999995e-09
# ybase: -8.9999999999999995e-09
# zbase: -8.6999999999999998e-08
# xnodes: 10
# ynodes: 10
# znodes: 88
# xstepsize: 2.0000000000000001e-09
# ystepsize: 2.0000000000000001e-09
# zstepsize: 2.0000000000000001e-09
# xmin: -1e-08
# ymin: -1e-08
# zmin: -8.7999999999999994e-08
# xmax: 1e-08
# ymax: 1e-08
# zmax: 8.800000000000002e-08
# valuedim: 3
# valuelabels: Magnetization_x Magnetization_y Magnetization_z
# valueunits: A/m A/m A/m
#
# End: Header
#
# Begin: Data Text
 0 0 0
 0 0 0
 0 0 0
 10112.82966 44021.77988 475322.7166
 3831.31326 44303.72633 475388.6538
 -3831.366436 44303.72698 475388.6533
 -10112.88301 44021.78368 475322.7151
 0 0 -0
 0 0 -0
 0 0 -0
 0 0 0
 28844.9874 33978.27662 475379.1273
 23022.35075 35282.23637 475601.7309
 13590.49187 38064.35012 475750.2234
 4600.124008 38878.59131 475856.2444
 -4600.179173 38878.5921 475856.2438
 -13590.54791 38064.35382 475750.2215
 -23022.40892 35282.24139 475601.7277
 -28845.04584 33978.28152 475379.1234
 0 0 -0
 0 0 0
 30105.03126 28236.41036 475676.6376
 23872.30394 29117.16131 475977.0744
 14860.59622 30310.23673 476269.1713
 5037.294943 30867.8245 476438.5316
 -5037.352892 30867.82632 476438.5308
 -14860.6547 30310.24074 476269.1692
 -23872.3631 29117.16549 475977.0711
 -30105.09045 28236.41457 475676.6336
 0 0 -0
 38853.43059 15298.46903 475634.5646
 32845.01782 18837.75445 475960.3083
 25029.70747 20155.11904 476381.3139
 15581.28089 20912.48893 476751.2588
 5282.960152 21262.7369 476961.0651
 -5283.019774 21262.73829 476961.0644
 -15581.34048 20912.49217 476751.2567
 -25029.76723 20155.12245 476381.3106
 -32845.07688 18837.7587 475960.3041
 -38853.48862 15298.47325 475634.5598
 39132.93366 9053.704186 475771.4948
 33644.92436 9871.21044 476174.8099
 25568.85067 10358.3468 476666.3506
 15911.9798 10642.23233 477080.1013
 5395.247257 10774.90481 477311.9148
 -5395.307774 10774.90572 477311.9141
 -15912.04 10642.23468 477080.0993
 -25568.91001 10358.35102 476666.3474
 -33644.98257 9871.214686 476174.8057
 -39132.99061 9053.709171 475771.49
 39124.62183 1401.56495 475856.2502
 33642.90767 675.1228655 476276.7791
 25568.44054 286.1677636 476778.8211
 15912.11464 78.08687189 477198.7739
 5395.373555 -13.81838503 477433.5148
 -5395.435137 -13.81686315 477433.5141
 -15912.17554 78.08886286 477198.7719
 -25568.50019 286.1708791 476778.8179
 -33642.96565 675.1274105 476276.775
 -39124.67831 1401.570355 475856.2456
 38831.99255 -4899.651515 475857.0595
 32839.24478 -8331.412649 476260.478
 25025.83249 -9556.47077 476711.9181
 15580.5007 -10243.71851 477099.7648
 5283.040751 -10555.65784 477318.0689
 -5283.103631 -10555.65677 477318.0682
 -15580.56252 -10243.71659 477099.7628
 -25025.89297 -9556.466569 476711.915
 -32839.30299 -8331.407733 476260.474
 -38832.04894 -4899.646976 475857.0549
 0 0 0
 30070.10577 -17764.81697 476184.9129
 23853.69949 -18600.3436 476504.8788
 14856.3006 -19736.36074 476824.5355
 5036.649704 -20260.31573 477007.3616
 -5036.713849 -20260.31582 477007.361
 -14856.36361 -19736.35973 476824.5336
 -23853.76079 -18600.34149 476504.8758
 -30070.16507 -17764.81357 476184.9093
 0 0 -0
 0 0 0
 28754.61155 -23611.18188 476012.1382
 22987.08293 -24882.27236 476260.7876
 13583.53142 -27608.21014 476471.5581
 4597.570508 -28397.24623 476596.6115
 -4597.636028 -28397.24656 476596.6108
 -13583.59598 -27608.20978 476471.5563
 -22987.14511 -24882.27009 476260.7848
 -28754.67187 -23611.1788 476012.1347
 0 0 -0
 0 0 0
 0 0 0
 0 0 0
 10088.88148 -33649.79174 476169.9038
 3822.150398 -33939.93953 476240.8455
 -3822.216466 -33939.94119 476240.8449
 -10088.94785 -33649.79343 476169.9023
 0 0 -0
 0 0 -0
 0 0 -0
 0 0 0
 0 0 0
 0 0 0
 8639.952679 39181.25537 475775.2114
 3334.055201 39432.95477 475821.1822
 -3334.108302 39432.95609 475821.1817
 -8640.006486 39181.25821 475775.2101
 0 0 -0
 0 0 -0
 0 0 -0
 0 0 0
 25291.44311 30325.42279 475828.3125
 20397.39426 31537.37764 475984.4655
 12010.55203 34290.20289 476079.6151
 4085.510995 35164.78052 476149.7854
 -4085.565899 35164.78158 476149.7848
 -12010.60814 34290.20648 476079.6134
 -20397.45235 31537.3822 475984.4627
 -25291.50173 30325.42779 475828.309
 0 0 -0
 0 0 0
 26460.30905 25509.44626 476047.2576
 21309.52859 26448.96193 476254.3729
 13356.88953 27692.51472 476473.0731
 4543.551516 28293.40092 476603.3056
 -4543.608205 28293.40229 476603.305
 -13356.94742 27692.51811 476473.0713
 -21309.58724 26448.96651 476254.37
 -26460.36733 25509.45041 476047.2542
 0 0 -0
 34099.31757 13723.15399 476047.0385
 29169.1147 17152.30474 476263.4066
 22517.69393 18543.02173 476572.1153
 14122.96467 19344.60895 476862.8726
 4804.57159 19717.73128 477032.492
 -4804.630304 19717.73257 477032.4914
 -14123.023 19344.61188 476862.8708
 -22517.75197 18543.02543 476572.1124
 -29169.17237 17152.30831 476263.403
 -34099.37497 13723.15789 476047.0343
 34349.09732 8454.268374 476151.7995
 30029.26313 9249.656279 476428.9648
 23099.80104 9754.923348 476805.109
 14476.68086 10052.63074 477138.5979
 4924.087546 10191.91606 477329.8121
 -4924.146641 10191.91724 477329.8114
 -14476.7396 10052.63352 477138.5961
 -23099.85884 9754.92636 476805.1061
 -30029.31976 9249.660828 476428.9612
 -34349.15277 8454.272873 476151.7954
 34337.29426 1799.638078 476224.2989
 30025.19775 1084.435756 476517.7676
 23098.11866 671.1658807 476904.4954
 14476.08711 445.6828633 477244.2934
 4923.97641 345.4493408 477438.4844
 -4924.035924 345.4499357 477438.4838
 -14476.14651 445.6850233 477244.2916
 -23098.17698 671.1693503 476904.4926
 -30025.25406 1084.440308 476517.764
 -34337.34962 1799.642976 476224.2948
 34067.95386 -3520.999559 476234.0269
 29157.30921 -6852.112939 476523.6313
 22509.76465 -8158.071968 476863.3218
 14119.91521 -8893.60748 477172.2991
 4803.929143 -9230.241959 477350.6009
 -4803.989747 -9230.241153 477350.6003
 -14119.97511 -8893.60526 477172.2974
 -22509.82295 -8158.068911 476863.3191
 -29157.3658 -6852.108312 476523.6279
 -34068.00921 -3520.994583 476234.023
 0 0 0
 26412.97616 -15230.69386 476489.5088
 21282.84195 -16136.43511 476716.4014
 13348.59193 -17327.52181 476962.7275
 4541.664515 -17896.87845 477106.85
 -4541.727005 -17896.8784 477106.8494
 -13348.65344 -17327.52081 476962.7258
 -21282.90109 -16136.43302 476716.3989
 -26413.03268 -15230.69032 476489.5057
 0 0 -0
 0 0 0
 25178.98887 -20136.88026 476374.2183
 20349.41429 -21327.35523 476553.1624
 11997.78725 -24026.64861 476708.1335
 4081.007767 -24879.80019 476797.8735
 -4081.072131 -24879.80083 476797.873
 -11997.85075 -24026.64781 476708.132
 -20349.47444 -21327.35345 476553.1599
 -25179.04608 -20136.87773 476374.2154
 0 0 -0
 0 0 0
 0 0 0
 0 0 0
 8606.958554 -28974.81294 476506.2977
 3321.611319 -29242.21162 476556.1155
 -3321.675289 -29242.21287 476556.115
 -8607.023662 -28974.81461 476506.2965
 0 0 -0
 0 0 -0
 0 0 -0
 0 0 0
 0 0 0
 0 0 0
 7043.692875 33202.46631 476256.0802
 2731.630145 33409.80413 476285.8328
 -2731.6827 33409.80516 476285.8324
 -7043.746587 33202.46841 476256.0792
 0 0 -0
 0 0 -0
 0 0 -0
 0 0 0
 20957.26586 25855.2085 476302.606
 16965.08417 26882.83087 476404.6291
 9971.148807 29278.83711 476461.1182
 3396.869754 30080.00722 476503.4373
 -3396.923805 30080.0078 476503.4369
 -9971.20398 29278.83984 476461.1169
 -16965.14004 26882.83514 476404.6269
 -20957.32228 25855.21397 476302.6032
 0 0 -0
 0 0 0
 21945.01738 21933.33325 476454.8419
 17805.67072 22796.76861 476586.9666
 11216.45816 23949.42647 476731.043
 3826.172534 24525.52735 476818.3409
 -3826.228956 24525.52814 476818.3404
 -11216.5141 23949.42967 476731.0415
 -17805.72675 22796.77297 476586.9643
 -21945.07384 21933.33766 476454.8391
 0 0 -0
 28243.6739 11984.9228 476477.206
 24295.79391 14964.15629 476610.5955
 18925.16773 16247.60852 476812.0432
 11950.23476 17013.22717 477011.1249
 4079.354656 17377.50823 477130.2258
 -4079.411295 17377.50939 477130.2253
 -11950.29099 17013.22988 477011.1234
 -18925.22335 16247.61225 476812.0409
 -24295.84934 14964.16028 476610.5925
 -28243.72791 11984.92693 476477.2027
 28448.41463 7708.998538 476553.3867
 25081.85128 8410.32295 476730.5722
 19482.72285 8879.82602 476983.6931
 12296.26816 9165.153157 477217.637
 4197.241757 9300.794785 477354.9515
 -4197.299174 9300.796 477354.9509
 -12296.32447 9165.155783 477217.6355
 -19482.77834 8879.829381 476983.6908
 -25081.90534 8410.32679 476730.5693
 -28448.4677 7709.002941 476553.3834
 28432.80856 2262.467928 476611.2965
 25074.6096 1625.060573 476802.3641
 19478.79413 1232.610131 477064.9102
 12294.35588 1009.511263 477304.6208
 4196.698373 908.0072718 477444.6927
 -4196.756575 908.0078145 477444.6921
 -12294.41283 1009.513764 477304.6193
 -19478.8496 1232.613886 477064.9079
 -25074.664 1625.064951 476802.3612
 -28432.86104 2262.473137 476611.2933
 28202.19393 -2058.133355 476625.9242
 24274.48303 -4953.337451 476820.8104
 18910.36582 -6167.078144 477049.5116
 11943.16947 -6876.818697 477265.0641
 4077.400504 -7209.640439 477392.1524
 -4077.459133 -7209.639899 477392.1519
 -11943.22726 -6876.816466 477265.0626
 -18910.4219 -6167.075183 477049.5094
 -24274.53763 -4953.333029 476820.8077
 -28202.2465 -2058.128219 476625.9211
 0 0 0
 21881.63307 -11928.02856 476813.1579
 17767.17189 -12771.13287 476962.3644
 11201.3503 -13880.79336 477130.7207
 3822.073859 -14430.48743 477230.5775
 -3822.133622 -14430.4868 477230.577
 -11201.40825 -13880.79247 477130.7194
 -17767.22862 -12771.13059 476962.3624
 -21881.68864 -11928.02538 476813.1554
 0 0 -0
 0 0 0
 20823.1397 -15919.50365 476743.9958
 16900.96955 -16937.81737 476864.0675
 9949.082373 -19284.64972 476970.6378
 3389.288865 -20069.41103 477029.981
 -3389.349617 -20069.41126 477029.9805
 -9949.142092 -19284.64897 476970.6366
 -16901.02708 -16937.81605 476864.0655
 -20823.1964 -15919.50133 476743.9934
 0 0 -0
 0 0 0
 0 0 0
 0 0 0
 7001.222013 -23235.47728 476846.9008
 2715.593494 -23463.48604 476879.3995
 -2715.656061 -23463.48699 476879.3991
 -7001.283283 -23235.47808 476846.8998
 0 0 -0
 0 0 -0
 0 0 -0
 0 0 0
 0 0 0
 0 0 0
 5592.523484 27446.09508 476641.6965
 2171.087738 27605.73178 476660.3416
 -2171.140068 27605.73197 476660.3413
 -5592.575156 27446.09652 476641.6958
 0 0 -0
 0 0 -0
 0 0 -0
 0 0 0
 16803.86939 21555.65926 476681.0829
 13610.30913 22375.27745 476745.1916
 7985.341658 24330.04029 476776.8396
 2720.426938 24996.79554 476801.4585
 -2720.480075 24996.79736 476801.4581
 -7985.394669 24330.0425 476776.8386
 -13610.36382 22375.2822 476745.1898
 -16803.92359 21555.66482 476681.0808
 0 0 -0
 0 0 0
 17586.49345 18425.02813 476784.1282
 14308.36065 19141.98397 476865.5225
 9033.480314 20114.44766 476954.5854
 3085.878321 20610.5714 477008.9653
 -3085.931376 20610.57178 477008.965
 -9033.534136 20114.45053 476954.5842
 -14308.4146 19141.98776 476865.5207
 -17586.54673 18425.03362 476784.126
 0 0 -0
 22623.45457 10381.85641 476814.71
 19495.17053 12820.31234 476893.5408
 15250.2882 13900.17041 477017.9088
 9667.180553 14561.24673 477143.9898
 3307.240043 14881.71125 477220.5655
 -3307.294144 14881.71242 477220.5651
 -9667.2347 14561.24964 477143.9886
 -15250.34174 13900.17477 477017.9069
 -19495.22285 12820.31642 476893.5385
 -22623.50689 10381.86097 476814.7074
 22779.39184 6995.659779 476868.9876
 20145.93201 7574.071659 476978.6643
 15728.37386 7972.03444 477138.2779
 9971.095765 8219.899703 477289.0967
 3411.962872 8339.659703 477378.9688
 -3412.017456 8339.660768 477378.9684
 -9971.149995 8219.902478 477289.0955
 -15728.42733 7972.037947 477138.2761
 -20145.98423 7574.076232 476978.662
 -22779.44322 6995.664174 476868.9851
 22760.85825 2672.686269 476913.6938
 20135.81443 2144.119317 477034.4044
 15722.21335 1807.188928 477201.6527
 9967.81456 1609.401113 477357.2287
 3410.960369 1517.429547 477449.4047
 -3411.015375 1517.430501 477449.4043
 -9967.868638 1609.404276 477357.2276
 -15722.26637 1807.193094 477201.651
 -20135.86621 2144.12392 477034.4022
 -22760.90933 2672.691657 476913.6914
 22574.36135 -752.4600492 476929.4532
 19465.42239 -3118.399011 477056.8564
 15228.87466 -4143.246717 477203.0869
 9656.044312 -4759.940146 477342.6181
 3303.922229 -5055.077164 477425.8074
 -3303.977778 -5055.076787 477425.807
 -9656.099109 -4759.938245 477342.617
 -15228.92775 -4143.243464 477203.0853
 -19465.47417 -3118.394483 477056.8543
 -22574.4131 -752.4543321 476929.4507
 0 0 0
 17509.84071 -8715.385285 477063.2231
 14259.3035 -9422.716078 477157.999
 9011.808219 -10361.49827 477266.4853
 3079.573726 -10836.6658 477331.074
 -3079.629988 -10836.66498 477331.0736
 -9011.864023 -10361.49629 477266.4843
 -14259.35705 -9422.713509 477157.9974
 -17509.89291 -8715.381451 477063.2213
 0 0 -0
 0 0 0
 16653.86029 -11898.67062 477025.0956
 13532.9072 -12717.47375 477102.7118
 7954.984013 -14626.45839 477173.6123
 2710.039699 -15280.68774 477211.7219
 -2710.096935 -15280.68779 477211.7216
 -7955.040277 -14626.45772 477173.6113
 -13532.96145 -12717.47192 477102.7103
 -16653.9124 -11898.66833 477025.0939
 0 0 -0
 0 0 0
 0 0 0
 0 0 0
 5542.852502 -17746.93351 477101.8701
 2152.268863 -17929.73674 477122.378
 -2152.32668 -17929.73646 477122.3777
 -5542.910423 -17746.93346 477101.8694
 0 0 -0
 0 0 -0
 0 0 -0
 0 0 0
 0 0 0
 0 0 0
 4363.344988 22427.90691 476916.9965
 1694.07278 22544.91715 476928.4308
 -1694.123209 22544.9183 476928.4306
 -4363.39515 22427.90908 476916.9959
 0 0 -0
 0 0 -0
 0 0 -0
 0 0 0
 13192.9877 17805.34493 476949.4586
 10677.42855 18435.47932 476988.4662
 6253.355151 19977.20937 477004.9035
 2129.366222 20504.6644 477018.7584
 -2129.417096 20504.6656 477018.7581
 -6253.406313 19977.21211 477004.9027
 -10677.47926 18435.48389 476988.4649
 -13193.03878 17805.35092 476949.457
 0 0 -0
 0 0 0
 13788.37323 15347.01154 477018.0513
 11223.69525 15909.17679 477066.8696
 7088.887633 16684.67288 477119.7341
 2422.534031 17084.28793 477152.1033
 -2422.586058 17084.28947 477152.103
 -7088.938575 16684.67536 477119.7332
 -11223.74615 15909.18164 477066.8682
 -13788.42373 15347.01727 477018.0497
 0 0 -0
 17738.42002 9008.736151 477049.3291
 15283.76275 10939.72682 477093.9114
 11971.02099 11801.75747 477167.9835
 7599.979669 12336.21313 477244.0984
 2602.56371 12598.09428 477290.6724
 -2602.615937 12598.09476 477290.6721
 -7600.031474 12336.2166 477244.0975
 -11971.07198 11801.76196 477167.9821
 -15283.81304 10939.732 477093.9096
 -17738.46925 9008.741751 477049.3272
 17850.88779 6373.777299 477087.6147
 15794.66238 6832.914147 477153.7606
 12353.25631 7152.220926 477250.5779
 7847.03607 7353.667218 477342.8735
 2688.448613 7451.987538 477398.2734
 -2688.501295 7451.988143 477398.2731
 -7847.087936 7353.670302 477342.8726
 -12353.30731 7152.225857 477250.5765
 -15794.71278 6832.918623 477153.7588
 -17850.93758 6373.782704 477087.6127
 17830.56411 3006.279031 477121.4778
 15782.58245 2586.676662 477196.0713
 12345.47274 2315.298169 477298.7534
 7842.719279 2153.156794 477394.7287
 2687.09431 2076.727953 477451.9222
 -2687.147288 2076.729234 477451.9219
 -7842.771336 2153.159786 477394.7278
 -12345.52345 2315.303042 477298.7521
 -15782.63235 2586.682427 477196.0696
 -17830.61345 3006.2849 477121.4759
 17684.73089 336.4567121 477136.2577
 15248.33427 -1530.382263 477217.9979
 11944.9074 -2348.889166 477308.7818
 7585.83052 -2848.719215 477395.2359
 2598.214787 -3090.737458 477446.9268
 -2598.267869 -3090.736792 477446.9265
 -7585.882273 -2848.717044 477395.2351
 -11944.95833 -2348.885619 477308.7806
 -15248.38442 -1530.37749 477217.9963
 -17684.78033 336.4632251 477136.2558
 0 0 0
 13703.23436 -5920.767618 477230.5912
 11167.50326 -6480.761178 477289.3859
 7062.548822 -7229.865391 477357.016
 2414.625157 -7612.979058 477397.1967
 -2414.677803 -7612.978436 477397.1965
 -7062.600633 -7229.862805 477357.0153
 -11167.55438 -6480.757077 477289.3848
 -13703.28511 -5920.763105 477230.5898
 0 0 -0
 0 0 0
 13033.7494 -8419.952983 477211.7948
 10591.53873 -9054.61965 477260.6253
 6217.413966 -10553.12433 477306.8684
 2117.061414 -11070.73229 477330.942
 -2117.114121 -11070.73107 477330.9418
 -6217.465895 -10553.12267 477306.8678
 -10591.58993 -9054.617266 477260.6242
 -13033.80034 -8419.949425 477211.7934
 0 0 -0
 0 0 0
 0 0 0
 0 0 0
 4309.334792 -12993.16292 477267.7222
 1673.553145 -13134.47248 477280.3748
 -1673.607718 -13134.47164 477280.3746
 -4309.387346 -12993.16194 477267.7217
 0 0 -0
 0 0 -0
 0 0 -0
 0 0 0
 0 0 0
 0 0 0
 3365.126659 18284.42486 477101.9042
 1306.32735 18367.20891 477108.8036
 -1306.375792 18367.21019 477108.8034
 -3365.173899 18284.42762 477101.9038
 0 0 -0
 0 0 -0
 0 0 -0
 0 0 0
 10217.62505 14706.47456 477128.0657
 8258.275192 15180.74696 477151.147
 4827.982782 16374.18689 477158.724
 1642.969555 16780.31924 477166.2109
 -1643.018612 16780.32079 477166.2107
 -4828.030565 16374.19019 477158.7234
 -8258.324169 15180.752 477151.146
 -10217.67358 14706.48082 477128.0644
 0 0 -0
 0 0 0
 10658.97004 12800.30591 477173.3541
 8671.658543 13227.38234 477201.9593
 5473.842694 13826.63008 477232.3676
 1870.21321 14136.55406 477251.0151
 -1870.262157 14136.55448 477251.0149
 -5473.891449 13826.63341 477232.3669
 -8671.706872 13227.38748 477201.9583
 -10659.01814 12800.31237 477173.3528
 0 0 -0
 13715.74348 7883.876342 477201.838
 11806.5356 9384.389155 477225.7435
 9244.770351 10052.92022 477268.6291
 5869.580797 10468.85369 477313.1283
 2010.295754 10673.55957 477340.4499
 -2010.345518 10673.56063 477340.4497
 -5869.630581 10468.85692 477313.1276
 -9244.819775 10052.92618 477268.628
 -11806.58414 9384.395768 477225.7422
 -13715.79152 7883.883531 477201.8365
 13793.62916 5858.392741 477228.7568
 12196.08709 6215.286393 477267.7414
 9538.127258 6464.033657 477324.954
 6060.996097 6621.626771 477379.6075
 2077.213944 6698.876863 477412.4857
 -2077.264638 6698.878149 477412.4855
 -6061.046797 6621.630681 477379.6068
 -9538.176727 6464.038347 477324.9529
 -12196.13632 6215.292915 477267.74
 -13793.67816 5858.39952 477228.7553
 13772.5573 3266.876259 477254.1414
 12183.03885 2942.519675 477299.4725
 9529.490158 2732.29479 477361.0737
 6056.116537 2605.888881 477418.479
 2075.663615 2545.947419 477452.7003
 -2075.714229 2545.94816 477452.7001
 -6056.166302 2605.892067 477418.4784
 -9529.5394 2732.300594 477361.0727
 -12183.08756 2942.526256 477299.4712
 -13772.606 3266.883138 477254.1399
 13660.16705 1209.243635 477267.0205
 11768.33351 -233.0344638 477318.8906
 9216.249514 -866.1320504 477374.2576
 5853.824505 -1254.625558 477426.4655
 2005.386209 -1443.615985 477457.6062
 -2005.436216 -1443.61508 477457.606
 -5853.874175 -1254.622684 477426.4649
 -9216.298151 -866.127795 477374.2567
 -11768.38205 -233.02865 477318.8894
 -13660.21544 1209.251074 477267.0191
 0 0 0
 10570.06205 -3626.719168 477333.2086
 8612.051992 -4056.455684 477369.091
 5445.117185 -4634.494044 477410.456
 1861.462101 -4931.151987 477434.9066
 -1861.511351 -4931.150625 477434.9064
 -5445.166607 -4634.491037 477410.4554
 -8612.100561 -4056.450438 477369.0901
 -10570.11061 -3626.713909 477333.2075
 0 0 -0
 0 0 0
 10055.08212 -5566.390086 477325.656
 8168.624392 -6048.467147 477355.8012
 4789.328962 -7200.824076 477385.674
 1629.725962 -7598.935757 477400.7451
 -1629.774699 -7598.93513 477400.745
 -4789.37722 -7200.821794 477385.6736
 -8168.673039 -6048.46339 477355.8004
 -10055.13052 -5566.385537 477325.6551
 0 0 -0
 0 0 0
 0 0 0
 0 0 0
 3309.381782 -9091.62339 477365.962
 1285.114099 -9199.144983 477373.6435
 -1285.163282 -9199.143146 477373.6434
 -3309.430122 -9091.621195 477365.9617
 0 0 -0
 0 0 -0
 0 0 -0
 0 0 0
 0 0 0
 0 0 0
 2576.615495 14975.90495 477222.1229
 1000.005042 15032.79568 477226.2423
 -1000.051883 15032.79735 477226.2421
 -2576.660799 14975.9073 477222.1226
 0 0 -0
 0 0 -0
 0 0 -0
 0 0 0
 7846.115151 12230.51596 477242.8357
 6331.160963 12583.27295 477256.167
 3695.018732 13497.68552 477258.8717
 1256.611386 13805.99451 477262.702
 -1256.658057 13805.99564 477262.7019
 -3695.065287 13497.68887 477258.8712
 -6331.207208 12583.2784 477256.1662
 -7846.161612 12230.5231 477242.8348
 0 0 -0
 0 0 0
 8167.553879 10766.04733 477272.7256
 6638.098161 11085.02212 477289.1464
 4185.755542 11540.45233 477306.1583
 1429.377689 11776.06491 477316.6166
 -1429.424919 11776.06602 477316.6164
 -4185.802485 11540.45579 477306.1578
 -6638.145156 11085.02782 477289.1456
 -8167.600082 10766.05453 477272.7246
 0 0 -0
 10512.05532 6989.010125 477297.1001
 9037.274256 8142.7354 477309.014
 7069.211446 8653.45192 477333.233
 4485.197027 8970.693737 477358.6502
 1535.661982 9126.91715 477374.2897
 -1535.71038 9126.918707 477374.2895
 -4485.245383 8970.697202 477358.6497
 -7069.259122 8653.458052 477333.2322
 -9037.321469 8142.743837 477309.0129
 -10512.10302 6989.018677 477297.0989
 10564.19154 5444.632568 477316.0642
 9329.545491 5719.13198 477338.5826
 7289.259142 5910.266877 477371.7699
 4629.468226 6031.313869 477403.4589
 1586.264469 6090.690862 477422.5158
 -1586.313526 6090.692418 477422.5156
 -4629.516716 6031.317443 477403.4584
 -7289.307739 5910.273545 477371.7691
 -9329.593927 5719.139523 477338.5815
 -10564.24061 5444.641208 477316.063
 10543.22702 3465.462245 477335
 9316.405966 3218.949683 477362.2463
 7280.489459 3060.087549 477398.6821
 4624.484902 2964.68852 477432.3995
 1584.676318 2919.43212 477452.4448
 -1584.724613 2919.433351 477452.4446
 -4624.533309 2964.692103 477432.399
 -7280.5374 3060.093306 477398.6813
 -9316.453732 3218.957142 477362.2454
 -10543.27606 3465.469685 477334.9989
 10456.79638 1890.580037 477345.7368
 8998.830354 790.8319232 477378.5363
 7040.385652 310.1664917 477411.9899
 4469.180151 15.49053365 477443.083
 1530.651128 -127.8772978 477461.5294
 -1530.698816 -127.8762348 477461.5292
 -4469.227819 15.49405903 477443.0825
 -7040.43304 310.1719927 477411.9892
 -8998.877439 790.8380149 477378.5354
 -10456.84482 1890.588327 477345.7357
 0 0 0
 8078.890274 -1808.047566 477392.2222
 6578.367511 -2132.669117 477413.917
 4156.740582 -2570.431621 477438.9863
 1420.502395 -2794.997797 477453.7061
 -1420.548425 -2794.996374 477453.706
 -4156.787276 -2570.427858 477438.986
 -6578.41452 -2132.663851 477413.9163
 -8078.936926 -1808.0417 477392.2214
 0 0 -0
 0 0 0
 7685.101213 -3302.122027 477390.7273
 6241.771026 -3664.69172 477409.1344
 3656.164452 -4540.069139 477428.4151
 1243.295187 -4841.652149 477437.8325
 -1243.339381 -4841.650449 477437.8324
 -3656.209337 -4540.066873 477428.4148
 -6241.816862 -3664.686552 477409.1339
 -7685.146842 -3302.117179 477390.7266
 0 0 -0
 0 0 0
 0 0 0
 0 0 0
 2521.278608 -5994.845148 477419.7066
 978.9323402 -6076.557866 477424.3274
 -978.9764495 -6076.556187 477424.3274
 -2521.321463 -5994.841478 477419.7065
 0 0 -0
 0 0 -0
 0 0 -0
 0 0 0
 0 0 0
 0 0 0
 1964.997513 12388.64314 477299.2055
 762.4273561 12426.56669 477301.6556
 -762.4729996 12426.56853 477301.6555
 -1965.043396 12388.64534 477299.2053
 0 0 -0
 0 0 -0
 0 0 -0
 0 0 0
 5995.712214 10293.0908 477315.3832
 4829.137128 10553.81377 477322.9177
 2813.750304 11250.87681 477323.1315
 956.3368008 11483.31889 477324.9314
 -956.3827659 11483.31997 477324.9312
 -2813.795304 11250.88001 477323.1312
 -4829.181357 10553.81959 477322.9171
 -5995.756322 10293.09862 477315.3824
 0 0 -0
 0 0 0
 6226.676585 9175.326718 477335.221
 5054.617469 9411.505044 477344.4728
 3183.231188 9754.974171 477353.725
 1086.320833 9932.455483 477359.4427
 -1086.367042 9932.456651 477359.4426
 -3183.276527 9754.977314 477353.7247
 -5054.661753 9411.511096 477344.4722
 -6226.721043 9175.335101 477335.2202
 0 0 -0
 8014.81551 6289.485057 477355.2937
 6880.917116 7171.887519 477360.5433
 5375.525431 7559.446035 477373.8889
 3407.092338 7799.263651 477388.1382
 1165.901386 7917.210637 477396.931
 -1165.947973 7917.211744 477396.9309
 -3407.13858 7799.267379 477388.1378
 -5375.571493 7559.45262 477373.8883
 -6880.962944 7171.895945 477360.5425
 -8014.860907 6289.495121 477355.2928
 8048.58487 5117.968333 477368.7233
 7098.410492 5328.259725 477381.4968
 5538.673528 5474.578656 477400.4853
 3514.305663 5567.073576 477418.6094
 1203.580477 5612.4077 477429.4959
 -1203.62766 5612.408162 477429.4958
 -3514.352969 5567.077991 477418.609
 -5538.720134 5474.585542 477400.4847
 -7098.457226 5328.268006 477381.496
 -8048.63159 5117.977209 477368.7224
 8028.421827 3613.006831 477382.8253
 7085.912159 3427.813255 477399.1111
 5530.390125 3309.838157 477420.4971
 3509.623533 3239.47173 477440.1111
 1202.092682 3206.213409 477451.7216
 -1202.139834 3206.215328 477451.7215
 -3509.67051 3239.475321 477440.1107
 -5530.436562 3309.844133 477420.4965
 -7085.958982 3427.820236 477399.1103
 -8028.468497 3613.014962 477382.8245
 7961.65649 2411.817452 477391.5232
 6844.341529 1580.152897 477412.3264
 5348.187643 1219.176703 477432.4893
 3391.98317 998.7893906 477450.9066
 1161.193189 891.8476587 477461.755
 -1161.238845 891.8484741 477461.7549
 -3392.029167 998.793552 477450.9062
 -5348.233859 1219.181888 477432.4887
 -6844.387758 1580.159252 477412.3257
 -7961.702836 2411.824965 477391.5224
 0 0 0
 6141.579578 -399.1118935 477424.3322
 4997.530206 -642.7086262 477437.4126
 3155.71653 -970.9271348 477452.5841
 1077.938846 -1138.854583 477461.425
 -1077.982278 -1138.853313 477461.4249
 -3155.760334 -970.9232267 477452.5838
 -4997.575226 -642.703037 477437.4121
 -6141.624661 -399.10626 477424.3317
 0 0 -0
 0 0 0
 5840.169566 -1545.186746 477425.7807
 4743.340641 -1816.988913 477436.9807
 2776.794682 -2477.1843 477449.4992
 943.6759249 -2703.890801 477455.4113
 -943.7175475 -2703.888916 477455.4112
 -2776.836563 -2477.180647 477449.499
 -4743.384739 -1816.983843 477436.9803
 -5840.214222 -1545.181682 477425.7802
 0 0 -0
 0 0 0
 0 0 0
 0 0 0
 1911.813828 -3591.068326 477446.6677
 742.1774273 -3653.7213 477449.4432
 -742.2183541 -3653.71892 477449.4431
 -1911.853427 -3591.064311 477446.6676
 0 0 -0
 0 0 -0
 0 0 -0
 0 0 0
 0 0 0
 0 0 0
 1495.790259 10387.429 477348.6516
 580.2000907 10411.68912 477350.1141
 -580.2463377 10411.69021 477350.114
 -1495.835683 10387.43176 477348.6514
 0 0 -0
 0 0 -0
 0 0 -0
 0 0 0
 4570.566446 8792.840326 477361.1496
 3673.733739 8984.887853 477365.3179
 2137.045718 9515.215798 477364.3944
 725.9556962 9689.974842 477365.1104
 -726.0011562 9689.976383 477365.1103
 -2137.09045 9515.218664 477364.3941
 -3673.777261 8984.893848 477365.3175
 -4570.608934 8792.848244 477361.1491
 0 0 -0
 0 0 0
 4734.502558 7943.882483 477374.4343
 3838.408773 8118.047452 477379.5505
 2414.040587 8376.436947 477384.4143
 823.2518229 8509.755963 477387.4502
 -823.2967831 8509.757213 477387.4501
 -2414.084951 8376.440066 477384.414
 -3838.452401 8118.053584 477379.55
 -4734.545419 7943.890315 477374.4337
 0 0 -0
 6094.041591 5745.127744 477390.5398
 5224.575444 6418.753509 477392.265
 4076.081642 6712.409532 477399.4139
 2580.538075 6893.337618 477407.2622
 882.5014966 6982.165827 477412.13
 -882.5469033 6982.16668 477412.1299
 -2580.583133 6893.341562 477407.2619
 -4076.12594 6712.415488 477399.4135
 -5224.619447 6418.762142 477392.2644
 -6094.086114 5745.137782 477390.5391
 6115.167646 4859.28124 477400.1083
 5386.006596 5020.452732 477407.2237
 4196.579481 5132.786012 477417.9663
 2659.835171 5203.720588 477428.2332
 910.4098161 5238.45817 477434.3945
 -910.4553952 5238.459676 477434.3943
 -2659.880811 5203.723944 477428.2329
 -4196.624764 5132.792422 477417.9658
 -5386.05121 5020.461038 477407.2232
 -6115.212615 4859.290234 477400.1076
 6096.403498 3717.265551 477410.6064
 5374.781579 3579.366692 477420.3296
 4189.320862 3493.023979 477432.8431
 2655.807755 3442.123615 477444.2059
 909.1459115 3418.241876 477450.8984
 -909.1908706 3418.24248 477450.8983
 -2655.853241 3442.128001 477444.2056
 -4189.366228 3493.02854 477432.8427
 -5374.82655 3579.373496 477420.3291
 -6096.448832 3717.272583 477410.6058
 6044.517768 2801.969626 477417.5155
 5191.687985 2176.37486 477430.8129
 4051.790309 1907.08487 477442.999
 2567.358192 1743.640816 477453.9137
 878.4498339 1664.674376 477460.29
 -878.4934912 1664.676615 477460.2899
 -2567.401988 1743.64436 477453.9134
 -4051.83453 1907.090451 477442.9986
 -5191.732182 2176.381375 477430.8123
 -6044.562866 2801.976304 477417.5148
 0 0 0
 4655.857501 673.1853204 477440.8247
 3786.372532 490.6034931 477448.7344
 2389.58195 245.7443447 477457.9571
 815.9006009 120.9591971 477463.2876
 -815.9425724 120.9602787 477463.2875
 -2389.624531 245.7481513 477457.9569
 -3786.415154 490.6084118 477448.7341
 -4655.89996 673.1902689 477440.8243
 0 0 -0
 0 0 0
 4423.949743 -204.7707797 477443.4606
 3594.428821 -408.7482513 477450.2951
 2103.803324 -904.6566727 477458.508
 714.5807972 -1074.530156 477462.2562
 -714.6208124 -1074.528156 477462.2561
 -2103.843724 -904.6525493 477458.5079
 -3594.470533 -408.7428898 477450.2948
 -4423.991125 -204.7657891 477443.4602
 0 0 -0
 0 0 0
 0 0 0
 0 0 0
 1446.272383 -1755.306877 477458.583
 561.3674715 -1804.101833 477460.2616
 -561.4048715 -1804.099553 477460.2615
 -1446.310457 -1755.302513 477458.5829
 0 0 -0
 0 0 -0
 0 0 -0
 0 0 0
 0 0 0
 0 0 0
 1137.601183 8840.697383 477380.7906
 441.1199455 8855.195497 477381.6735
 -441.1669088 8855.196962 477381.6735
 -1137.648435 8840.701031 477380.7904
 0 0 -0
 0 0 -0
 0 0 -0
 0 0 0
 3479.995071 7630.171302 477390.3449
 2790.690419 7771.277972 477392.5959
 1620.623865 8174.53889 477391.267
 550.2742839 8305.815416 477391.4347
 -550.3204432 8305.816361 477391.4346
 -1620.668794 8174.542371 477391.2668
 -2790.732061 7771.283305 477392.5955
 -3480.035827 7630.178322 477390.3445
 0 0 -0
 0 0 0
 3594.857211 6988.307547 477399.3212
 2910.607038 7116.493742 477402.0896
 1827.98021 7310.929067 477404.5246
 622.9516012 7411.142801 477406.0726
 -622.9973634 7411.144271 477406.0726
 -1828.02506 7310.932223 477404.5244