# OOMMF OVF 2.0
#
# Segment count: 1
#
# Begin: Segment
# Begin: Header
#
# Title: Oxs_MinDriver::Magnetization
# Desc: Oxs vector field output
# Desc:  MIF source file: F:/Bogdan/UNIC/2022/Master_degree/Simulation_samples/Cylinder0_5000 1.mif
# Desc:  Iteration: 788, State id: 1698
# Desc:  Stage: 0, Stage iteration: 788
# Desc:  Stage simulation time: -1 s
# Desc:  Total simulation time: -2 s
# meshunit: m
# meshtype: rectangular
# xbase: -8.9999999999999995e-09
# ybase: -8.9999999999999995e-09
# zbase: -8.6999999999999998e-08
# xnodes: 10
# ynodes: 10
# znodes: 88
# xstepsize: 2.0000000000000001e-09
# ystepsize: 2.0000000000000001e-09
# zstepsize: 2.0000000000000001e-09
# xmin: -1e-08
# ymin: -1e-08
# zmin: -8.7999999999999994e-08
# xmax: 1e-08
# ymax: 1e-08
# zmax: 8.800000000000002e-08
# valuedim: 3
# valuelabels: Magnetization_x Magnetization_y Magnetization_z
# valueunits: A/m A/m A/m
#
# End: Header
#
# Begin: Data Text
 0 0 0
 0 0 0
 0 0 0
 10112.82753 44021.79678 475322.715
 3831.312077 44303.74314 475388.6522
 -3831.367353 44303.74241 475388.6519
 -10112.8823 44021.7967 475322.7139
 0 0 -0
 0 0 -0
 0 0 -0
 0 0 0
 28844.99067 33978.29828 475379.1256
 23022.35311 35282.25749 475601.7292
 13590.49172 38064.36876 475750.2219
 4600.124242 38878.60825 475856.243
 -4600.178515 38878.60779 475856.2425
 -13590.54557 38064.36655 475750.2206
 -23022.40533 35282.25175 475601.7271
 -28845.04123 33978.29043 475379.1231
 0 0 -0
 0 0 0
 30105.03455 28236.43269 475676.636
 23872.30698 29117.1831 475977.0729
 14860.59805 30310.257 476269.1699
 5037.296963 30867.84271 476438.5304
 -5037.350146 30867.84196 476438.5299
 -14860.65099 30310.25399 476269.1685
 -23872.35882 29117.17699 475977.0706
 -30105.0852 28236.42449 475676.6333
 0 0 -0
 38853.43188 15298.4931 475634.5638
 32845.02055 18837.77842 475960.3072
 25029.71078 20155.1422 476381.3127
 15581.28408 20912.51128 476751.2577
 5282.96372 21262.7564 476961.0642
 -5283.015603 21262.75549 476961.0637
 -15581.33593 20912.50675 476751.2562
 -25029.76207 20155.13567 476381.3103
 -32845.07086 18837.77031 475960.304
 -38853.48314 15298.48575 475634.5598
 39132.93528 9053.731425 475771.4941
 33644.9269 9871.236857 476174.8092
 25568.85441 10358.37239 476666.3499
 15911.98385 10642.25568 477080.1007
 5395.252212 10774.92603 477311.9143
 -5395.302381 10774.92405 477311.9138
 -15912.0342 10642.25071 477080.0991
 -25568.90428 10358.36432 476666.3474
 -33644.97637 9871.226994 476174.8059
 -39132.98452 9053.721511 475771.4903
 39124.62436 1401.594467 475856.2499
 33642.91148 675.1515046 476276.7787
 25568.44488 286.1946318 476778.8209
 15912.12019 78.11198672 477198.7737
 5395.380344 -13.79540828 477433.5147
 -5395.427781 -13.79773843 477433.5142
 -15912.1683 78.10537828 477198.7721
 -25568.49335 286.1848643 476778.8183
 -33642.95921 675.1398527 476276.7754
 -39124.6724 1401.582493 475856.246
 38831.9954 -4899.620437 475857.0596
 32839.24899 -8331.382222 476260.4782
 25025.83834 -9556.441535 476711.9184
 15580.50777 -10243.69234 477099.7651
 5283.049641 -10555.63387 477318.0693
 -5283.093825 -10555.63696 477318.0687
 -15580.55319 -10243.69944 477099.7634
 -25025.88412 -9556.45289 476711.9158
 -32839.29508 -8331.395614 476260.4748
 -38832.04281 -4899.635476 475857.0556
 0 0 0
 30070.11182 -17764.7873 476184.9137
 23853.7064 -18600.31575 476504.8796
 14856.30956 -19736.33498 476824.5363
 5036.660835 -20260.29309 477007.3625
 -5036.701394 -20260.29535 477007.362
 -14856.35168 -19736.34206 476824.5347
 -23853.74976 -18600.32616 476504.877
 -30070.15493 -17764.79949 476184.9105
 0 0 -0
 0 0 0
 28754.61845 -23611.1532 476012.1392
 22987.09076 -24882.24508 476260.7887
 13583.54274 -27608.18629 476471.5592
 4597.58395 -28397.22449 476596.6126
 -4597.620774 -28397.22656 476596.6121
 -13583.58144 -27608.19216 476471.5577
 -22987.13231 -24882.25489 476260.7862
 -28754.65974 -23611.16443 476012.1361
 0 0 -0
 0 0 0
 0 0 0
 0 0 0
 10088.89546 -33649.77005 476169.905
 3822.166042 -33939.91893 476240.8469
 -3822.199177 -33939.92073 476240.8465
 -10088.92946 -33649.77423 476169.904
 0 0 -0
 0 0 -0
 0 0 -0
 0 0 0
 0 0 0
 0 0 0
 8639.952596 39181.27255 475775.2099
 3334.055473 39432.97054 475821.1809
 -3334.107745 39432.96969 475821.1806
 -8640.004953 39181.27198 475775.209
 0 0 -0
 0 0 -0
 0 0 -0
 0 0 0
 25291.44863 30325.4437 475828.3108
 20397.39857 31537.39724 475984.464
 12010.55431 34290.22139 476079.6137
 4085.512129 35164.79662 476149.7842
 -4085.564204 35164.79612 476149.7838
 -12010.60552 34290.21904 476079.6126
 -20397.44821 31537.39237 475984.4622
 -25291.49694 30325.43714 475828.3087
 0 0 -0
 0 0 0
 26460.31374 25509.4681 476047.2562
 21309.53295 26448.98302 476254.3715
 13356.89274 27692.53418 476473.0719
 4543.55408 28293.4189 476603.3045
 -4543.605472 28293.41782 476603.3041
 -13356.94355 27692.53154 476473.0706
 -21309.5828 26448.97756 476254.3696
 -26460.36247 25509.46085 476047.2539
 0 0 -0
 34099.32036 13723.17733 476047.0376
 29169.11793 17152.32743 476263.4056
 22517.69781 18543.04363 476572.1143
 14122.96858 19344.62977 476862.8716
 4804.575829 19717.75049 477032.4912
 -4804.625852 19717.74951 477032.4907
 -14123.01837 19344.62595 476862.8703
 -22517.74712 18543.03768 476572.1122
 -29169.16734 17152.3204 476263.4028
 -34099.36943 13723.17074 476047.0343
 34349.09946 8454.293617 476151.7989
 30029.2661 9249.68136 476428.9641
 23099.80494 9754.946901 476805.1083
 14476.68564 10052.65321 477138.5973
 4924.092821 10191.93669 477329.8116
 -4924.141157 10191.93483 477329.8111
 -14476.73392 10052.64864 477138.5959
 -23099.85321 9754.939628 476805.1061
 -30029.31408 9249.672691 476428.9613
 -34349.14775 8454.284926 476151.7956
 34337.29757 1799.665935 476224.2985
 30025.20083 1084.462754 476517.7673
 23098.12379 671.1919714 476904.4951
 14476.0928 445.7062374 477244.2932
 4923.983008 345.4703614 477438.4843
 -4924.02884 345.4680392 477438.4839
 -14476.13933 445.7009461 477244.2918
 -23098.17028 671.1830641 476904.4929
 -30025.24799 1084.45264 476517.7644
 -34337.34412 1799.654726 476224.2952
 34067.95713 -3520.970329 476234.0269
 29157.31344 -6852.08458 476523.6314
 22509.76993 -8158.045748 476863.322
 14119.92218 -8893.5834 477172.2994
 4803.937805 -9230.220754 477350.6012
 -4803.98052 -9230.223178 477350.6008
 -14119.96571 -8893.589838 477172.2979
 -22509.8148 -8158.055292 476863.3197
 -29157.35846 -6852.096356 476523.6285
 -34068.00307 -3520.983411 476234.0235
 0 0 0
 26412.98101 -15230.66701 476489.5093
 21282.84854 -16136.40945 476716.402
 13348.60082 -17327.49883 476962.728
 4541.675278 -17896.85752 477106.8507
 -4541.714987 -17896.86001 477106.8502
 -13348.64142 -17327.50445 476962.7267
 -21282.89031 -16136.41901 476716.3998
 -26413.0238 -15230.67792 476489.5066
 0 0 -0
 0 0 0
 25178.99368 -20136.85425 476374.2192
 20349.42206 -21327.33056 476553.1631
 11997.79845 -24026.62606 476708.1344
 4081.021382 -24879.78049 476797.8745
 -4081.056963 -24879.78217 476797.8741
 -11997.83533 -24026.63098 476708.1332
 -20349.46149 -21327.3388 476553.1611
 -25179.03518 -20136.86453 476374.2165
 0 0 -0
 0 0 0
 0 0 0
 0 0 0
 8606.972451 -28974.79348 476506.2987
 3321.625831 -29242.19327 476556.1166
 -3321.658568 -29242.19478 476556.1162
 -8607.005941 -28974.79705 476506.2978
 0 0 -0
 0 0 -0
 0 0 -0
 0 0 0
 0 0 0
 0 0 0
 7043.695618 33202.48332 476256.079
 2731.631176 33409.82038 476285.8316
 -2731.681294 33409.81918 476285.8314
 -7043.744413 33202.48205 476256.0783
 0 0 -0
 0 0 -0
 0 0 -0
 0 0 0
 20957.27247 25855.22851 476302.6046
 16965.08956 26882.85023 476404.6278
 9971.152753 29278.85506 476461.117
 3396.87285 30080.02343 476503.4362
 -3396.921093 30080.02252 476503.4359
 -9971.200855 29278.8528 476461.1162
 -16965.13643 26882.84621 476404.6264
 -20957.31805 25855.22355 476302.6029
 0 0 -0
 0 0 0
 21945.02388 21933.35366 476454.8407
 17805.67583 22796.78857 476586.9654
 11216.46334 23949.44538 476731.0419
 3826.177307 24525.54411 476818.34
 -3826.224197 24525.54336 476818.3397
 -11216.51028 23949.44288 476731.0409
 -17805.72222 22796.7842 476586.9639
 -21945.06935 21933.34845 476454.8388
 0 0 -0
 28243.6774 11984.94465 476477.2052
 24295.79888 14964.17743 476610.5946
 18925.17243 16247.6292 476812.0423
 11950.24017 17013.24687 477011.1241
 4079.359633 17377.5263 477130.2251
 -4079.405854 17377.5252 477130.2247
 -11950.28633 17013.24381 477011.123
 -18925.2184 16247.6244 476812.0406
 -24295.84406 14964.17175 476610.5924
 -28243.72347 11984.93856 476477.2026
 28448.41801 7709.020973 476553.3861
 25081.85539 8410.345045 476730.5716
 19482.72771 8879.8475 476983.6925
 12296.27353 9165.173487 477217.6365
 4197.24819 9300.81326 477354.951
 -4197.292756 9300.812122 477354.9507
 -12296.31874 9165.16991 477217.6354
 -19482.7727 8879.841868 476983.6908
 -25081.90003 8410.338103 476730.5694
 -28448.46273 7709.01391 476553.3835
 28432.81198 2262.491919 476611.2962
 25074.61438 1625.083929 476802.3638
 19478.7994 1232.632461 477064.9099
 12294.36228 1009.531855 477304.6205
 4196.705929 908.0253779 477444.6926
 -4196.748572 908.0238398 477444.6922
 -12294.40525 1009.527463 477304.6195
 -19478.84297 1232.625449 477064.9082
 -25074.65742 1625.075697 476802.3616
 -28432.85586 2262.482566 476611.2936
 28202.19754 -2058.108948 476625.9241
 24274.48808 -4953.313815 476820.8104
 18910.37197 -6167.056114 477049.5116
 11943.17674 -6876.798091 477265.0642
 4077.409054 -7209.622756 477392.1526
 -4077.449464 -7209.624164 477392.1522
 -11943.21783 -6876.802998 477265.0631
 -18910.41309 -6167.063238 477049.5099
 -24274.52986 -4953.323039 476820.8082
 -28202.24033 -2058.119509 476625.9215
 0 0 0
 21881.63893 -11928.00585 476813.1582
 17767.17851 -12771.11131 476962.3647
 11201.35826 -13880.77369 477130.7211
 3822.084815 -14430.46949 477230.5779
 -3822.122064 -14430.47119 477230.5776
 -11201.39682 -13880.7783 477130.72
 -17767.21803 -12771.11849 476962.3631
 -21881.67839 -11928.01454 476813.1562
 0 0 -0
 0 0 0
 20823.14627 -15919.48151 476743.9963
 16900.97613 -16937.79648 476864.068
 9949.092278 -19284.63046 476970.6384
 3389.301042 -20069.3941 477029.9816
 -3389.3361 -20069.39532 477029.9813
 -9949.128627 -19284.63476 476970.6375
 -16901.01494 -16937.80319 476864.0664
 -20823.18434 -15919.48996 476743.9943
 0 0 -0
 0 0 0
 0 0 0
 0 0 0
 7001.233862 -23235.45982 476846.9015
 2715.607724 -23463.47018 476879.4002
 -2715.639995 -23463.47142 476879.4
 -7001.267308 -23235.4625 476846.9008
 0 0 -0
 0 0 -0
 0 0 -0
 0 0 0
 0 0 0
 0 0 0
 5592.527962 27446.1114 476641.6955
 2171.092392 27605.74675 476660.3407
 -2171.135623 27605.74564 476660.3406
 -5592.571975 27446.10919 476641.6951
 0 0 -0
 0 0 -0
 0 0 -0
 0 0 0
 16803.8771 21555.67794 476681.0818
 13610.31649 22375.29562 476745.1906
 7985.347781 24330.05691 476776.8386
 2720.432126 24996.81145 476801.4576
 -2720.475244 24996.8103 476801.4574
 -7985.390344 24330.05473 476776.838
 -13610.35814 22375.29246 476745.1895
 -16803.91831 21555.67468 476681.0805
 0 0 -0
 0 0 0
 17586.50026 18425.04697 476784.1272
 14308.36749 19142.00211 476865.5216
 9033.486809 20114.46477 476954.5845
 3085.883567 20610.5871 477008.9646
 -3085.926172 20610.58569 477008.9644
 -9033.529106 20114.46249 476954.5838
 -14308.40888 19141.99838 476865.5205
 -17586.54142 18425.04348 476784.1258
 0 0 -0
 22623.46024 10381.87514 476814.7093
 19495.17634 12820.33099 476893.54
 15250.29481 13900.18883 477017.908
 9667.187119 14561.26401 477143.9891
 3307.246604 14881.72691 477220.565
 -3307.288388 14881.72641 477220.5647
 -9667.228471 14561.26179 477143.9884
 -15250.3357 13900.18543 477017.9068
 -19495.21757 12820.32632 476893.5385
 -22623.50054 10381.86999 476814.7075
 22779.39702 6995.679076 476868.9871
 20145.93782 7574.09058 476978.6637
 15728.38018 7972.053079 477138.2774
 9971.102968 8219.917101 477289.0962
 3411.969559 8339.675238 477378.9685
 -3412.010234 8339.674547 477378.9682
 -9971.143115 8219.914173 477289.0954
 -15728.42028 7972.048186 477138.2761
 -20145.97836 7574.085771 476978.6621
 -22779.4377 6995.672971 476868.9852
 22760.86305 2672.706479 476913.6935
 20135.81952 2144.138899 477034.4041
 15722.2195 1807.207416 477201.6525
 9967.821488 1609.418713 477357.2285
 3410.968532 1517.444409 477449.4046
 -3411.007679 1517.444015 477449.4043
 -9967.860444 1609.414967 477357.2277
 -15722.25882 1807.202612 477201.6512
 -20135.85972 2144.131984 477034.4025
 -22760.9029 2672.698817 476913.6916
 22574.36691 -752.4397453 476929.4529
 19465.42798 -3118.380021 477056.8563
 15228.88131 -4143.228653 477203.0869
 9656.052158 -4759.924092 477342.6181
 3303.931538 -5055.062725 477425.8075
 -3303.96838 -5055.063775 477425.8072
 -9656.089448 -4759.926941 477342.6173
 -15228.91958 -4143.233803 477203.0856
 -19465.46671 -3118.386261 477056.8547
 -22574.40609 -752.4478467 476929.4511
 0 0 0
 17509.84613 -8715.366493 477063.2232
 14259.31048 -9422.698639 477157.9991
 9011.817014 -10361.48229 477266.4855
 3079.583321 -10836.6519 477331.0742
 -3079.61904 -10836.65252 477331.074
 -9011.852736 -10361.48593 477266.4847
 -14259.34708 -9422.703787 477157.9979
 -17509.88368 -8715.373435 477063.2217
 0 0 -0
 0 0 0
 16653.86589 -11898.6532 477025.0959
 13532.91499 -12717.45738 477102.712
 7954.993491 -14626.44386 477173.6126
 2710.051229 -15280.67441 477211.7223
 -2710.084324 -15280.67556 477211.7221
 -7955.027291 -14626.44655 477173.6119
 -13532.94984 -12717.46211 477102.7109
 -16653.90268 -11898.6594 477025.0944
 0 0 -0
 0 0 0
 0 0 0
 0 0 0
 5542.863497 -17746.9199 477101.8705
 2152.281278 -17929.72338 477122.3784
 -2152.313513 -17929.72389 477122.3783
 -5542.895997 -17746.92195 477101.87
 0 0 -0
 0 0 -0
 0 0 -0
 0 0 0
 0 0 0
 0 0 0
 4363.351841 22427.92174 476916.9957
 1694.078635 22544.92962 476928.4302
 -1694.118021 22544.92935 476928.4301
 -4363.389766 22427.91865 476916.9955
 0 0 -0
 0 0 -0
 0 0 -0
 0 0 0
 13192.9953 17805.36112 476949.4578
 10677.43553 18435.49495 476988.4655
 6253.362441 19977.22376 477004.9028
 2129.372631 20504.67753 477018.7578
 -2129.410691 20504.67624 477018.7577
 -6253.400086 19977.2216 477004.9024
 -10677.47326 18435.49239 476988.4647
 -13193.03221 17805.35911 476949.4568
 0 0 -0
 0 0 0
 13788.38031 15347.02733 477018.0506
 11223.70267 15909.19189 477066.8689
 7088.894923 16684.68705 477119.7335
 2422.542146 17084.30036 477152.1029
 -2422.578896 17084.29975 477152.1027
 -7088.931348 16684.68426 477119.733
 -11223.73924 15909.18958 477066.8681
 -13788.41669 15347.02466 477018.0497
 0 0 -0
 17738.42663 9008.751862 477049.3286
 15283.77056 10939.74226 477093.9108
 11971.0284 11801.77258 477167.9829
 7599.98746 12336.22668 477244.0979
 2602.572193 12598.10602 477290.6721
 -2602.607967 12598.10507 477290.6719
 -7600.023738 12336.22499 477244.0974
 -11971.06442 11801.76931 477167.9821
 -15283.80565 10939.73851 477093.9097
 -17738.46158 9008.746502 477049.3274
 17850.89526 6373.792576 477087.6142
 15794.67 6832.929215 477153.7601
 12353.26397 7152.236036 477250.5775
 7847.044003 7353.680853 477342.8732
 2688.457637 7451.998803 477398.2731
 -2688.492832 7451.998313 477398.273
 -7847.079069 7353.678341 477342.8726
 -12353.29933 7152.232592 477250.5766
 -15794.70515 6832.924586 477153.759
 -17850.92989 6373.787404 477087.613
 17830.57122 3006.295054 477121.4774
 15782.58998 2586.69243 477196.071
 12345.48063 2315.313131 477298.7531
 7842.728338 2153.169876 477394.7285
 2687.10357 2076.739489 477451.9221
 -2687.137633 2076.738716 477451.9219
 -7842.761963 2153.167647 477394.7279
 -12345.51432 2315.309232 477298.7523
 -15782.62378 2586.686991 477196.0699
 -17830.60554 3006.28843 477121.4762
 17684.73875 336.4727567 477136.2574
 15248.34229 -1530.367742 477217.9977
 11944.91595 -2348.875837 477308.7817
 7585.839592 -2848.707361 477395.2358
 2598.224686 -3090.727165 477446.9268
 -2598.258064 -3090.727187 477446.9266
 -7585.872548 -2848.709165 477395.2353
 -11944.9488 -2348.879331 477308.7808
 -15248.37563 -1530.372395 477217.9966
 -17684.77204 336.4670055 477136.2561
 0 0 0
 13703.24226 -5920.753742 477230.5911
 11167.51195 -6480.7481 477289.3859
 7062.558137 -7229.853755 477357.0161
 2414.635408 -7612.969171 477397.1968
 -2414.666806 -7612.970081 477397.1966
 -7062.589843 -7229.855882 477357.0156
 -11167.54411 -6480.751458 477289.3851
 -13703.27513 -5920.758493 477230.5901
 0 0 -0
 0 0 0
 13033.75749 -8419.939922 477211.7948
 10591.54754 -9054.60777 477260.6253
 6217.423468 -10553.11376 477306.8685
 2117.072035 -11070.72241 477330.9422
 -2117.102645 -11070.72337 477330.9421
 -6217.454096 -10553.11552 477306.8681
 -10591.57944 -9054.611163 477260.6246
 -13033.78987 -8419.94467 477211.7938
 0 0 -0
 0 0 0
 0 0 0
 0 0 0
 4309.345386 -12993.15351 477267.7224
 1673.564989 -13134.46376 477280.375
 -1673.595161 -13134.46432 477280.3749
 -4309.375536 -12993.15479 477267.722
 0 0 -0
 0 0 -0
 0 0 -0
 0 0 0
 0 0 0
 0 0 0
 3365.134322 18284.43554 477101.9038
 1306.335058 18367.21808 477108.8032
 -1306.368745 18367.21814 477108.8031
 -3365.16741 18284.43309 477101.9036
 0 0 -0
 0 0 -0
 0 0 -0
 0 0 0
 10217.63302 14706.48585 477128.0651
 8258.28365 15180.75808 477151.1465
 4827.990562 16374.19764 477158.7235
 1642.977814 16780.32847 477166.2106
 -1643.010922 16780.32768 477166.2105
 -4828.023133 16374.19522 477158.7233
 -8258.315638 15180.75599 477151.146
 -10217.6654 14706.48443 477128.0645
 0 0 -0
 0 0 0
 10658.97819 12800.31734 477173.3536
 8671.666997 13227.39353 477201.9589
 5473.850933 13826.64026 477232.3672
 1870.221897 14136.56223 477251.0148
 -1870.253824 14136.56138 477251.0147
 -5473.882531 13826.63793 477232.3669
 -8671.698352 13227.39133 477201.9584
 -10659.00917 12800.3155 477173.3529
 0 0 -0
 13715.75267 7883.888154 477201.8375
 11806.54432 9384.401073 477225.743
 9244.779617 10052.93134 477268.6287
 5869.590369 10468.86297 477313.1279
 2010.304944 10673.56719 477340.4497
 -2010.336041 10673.566 477340.4496
 -5869.620481 10468.86109 477313.1276
 -9244.809798 10052.92849 477268.6282
 -11806.57471 9384.397004 477225.7424
 -13715.78143 7883.882785 477201.8368
 13793.63843 5858.404566 477228.7564
 12196.09652 6215.297903 477267.741
 9538.137062 6464.043993 477324.9536
 6061.006429 6621.635826 477379.6073
 2077.224261 6698.88436 477412.4856
 -2077.253993 6698.883149 477412.4855
 -6061.035988 6621.633908 477379.6069
 -9538.166521 6464.040748 477324.9531
 -12196.12624 6215.293857 477267.7403
 -13793.66822 5858.399156 477228.7556
 13772.56663 3266.888084 477254.141
 12183.04853 2942.530844 477299.4722
 9529.50027 2732.305108 477361.0734
 6056.127086 2605.897601 477418.4788
 2075.673785 2545.954267 477452.7003
 -2075.702961 2545.954108 477452.7001
 -6056.15592 2605.895875 477418.4785
 -9529.528594 2732.302284 477361.0729
 -12183.0779 2942.526785 477299.4714
 -13772.59612 3266.882959 477254.1402
 13660.17658 1209.254874 477267.0202
 11768.3436 -233.0244685 477318.8903
 9216.259598 -866.1232881 477374.2575
 5853.835761 -1254.617752 477426.4654
 2005.396933 -1443.609291 477457.6062
 -2005.425365 -1443.610006 477457.606
 -5853.863045 -1254.619352 477426.465
 -9216.287292 -866.1257303 477374.2569
 -11768.37195 -233.0275665 477318.8896
 -13660.20589 1209.250935 477267.0194
 0 0 0
 10570.07261 -3626.709676 477333.2084
 8612.062462 -4056.44718 477369.0909
 5445.128944 -4634.487361 477410.4559
 1861.473083 -4931.145962 477434.9066
 -1861.50024 -4931.146559 477434.9065
 -5445.155401 -4634.488206 477410.4556
 -8612.089423 -4056.449756 477369.0904
 -10570.09982 -3626.71268 477333.2078
 0 0 -0
 0 0 0
 10055.09255 -5566.381139 477325.6559
 8168.635563 -6048.45981 477355.8011
 4789.340261 -7200.818231 477385.674
 1629.737312 -7598.930937 477400.7452
 -1629.763529 -7598.931127 477400.7451
 -4789.366266 -7200.819473 477385.6737
 -8168.661746 -6048.462328 477355.8006
 -10055.11969 -5566.384644 477325.6553
 0 0 -0
 0 0 0
 0 0 0
 0 0 0
 3309.392892 -9091.617473 477365.962
 1285.125326 -9199.138881 477373.6436
 -1285.152265 -9199.139451 477373.6435
 -3309.418907 -9091.618231 477365.9618
 0 0 -0
 0 0 -0
 0 0 -0
 0 0 0
 0 0 0
 0 0 0
 2576.624208 14975.91078 477222.1227
 1000.014255 15032.8003 477226.2421
 -1000.04241 15032.80075 477226.2421
 -2576.653005 14975.90891 477222.1226
 0 0 -0
 0 0 -0
 0 0 -0
 0 0 0
 7846.123923 12230.52252 477242.8354
 6331.169873 12583.27969 477256.1667
 3695.027658 13497.69131 477258.8715
 1256.620444 13805.99906 477262.7019
 -1256.648969 13805.99843 477262.7018
 -3695.056033 13497.68952 477258.8713
 -6331.197937 12583.27766 477256.1664
 -7846.15258 12230.52134 477242.835
 0 0 -0
 0 0 0
 8167.563019 10766.05396 477272.7253
 6638.107979 11085.02844 477289.1461
 4185.765505 11540.45802 477306.158
 1429.3873 11776.06891 477316.6165
 -1429.415006 11776.06806 477316.6164
 -4185.792562 11540.45578 477306.1578
 -6638.134682 11085.0265 477289.1458
 -8167.590251 10766.05199 477272.7249
 0 0 -0
 10512.06682 6989.017894 477297.0997
 9037.284534 8142.742725 477309.0137
 7069.222401 8653.458635 477333.2327
 4485.208129 8970.698536 477358.65
 1535.672834 9126.921027 477374.2895
 -1535.698851 9126.91937 477374.2895
 -4485.233603 8970.696695 477358.6498
 -7069.247844 8653.455266 477333.2324
 -9037.309828 8142.739042 477309.0132
 -10512.09095 6989.012985 477297.0992
 10564.20367 5444.64019 477316.0638
 9329.557201 5719.139008 477338.5823
 7289.270967 5910.272934 477371.7697
 4629.480577 6031.318587 477403.4587
 1586.276344 6090.693671 477422.5157
 -1586.300869 6090.693389 477422.5156
 -4629.504379 6031.316391 477403.4585
 -7289.29509 5910.270149 477371.7694
 -9329.581808 5719.135028 477338.5818
 -10564.22733 5444.635326 477316.0634
 10543.23909 3465.468673 477334.9997
 9316.418191 3218.955796 477362.2461
 7280.501782 3060.0925 477398.6818
 4624.497723 2964.692015 477432.3993
 1584.688788 2919.435026 477452.4447
 -1584.712128 2919.433679 477452.4446
 -4624.520374 2964.690992 477432.3991
 -7280.524827 3060.090426 477398.6815
 -9316.441537 3218.952758 477362.2456
 -10543.26278 3465.465069 477334.9992
 10456.80859 1890.585999 477345.7365
 8998.842623 790.8366693 477378.5361
 7040.398362 310.1709113 477411.9897
 4469.193535 15.49411512 477443.0829
 1530.66352 -127.8755775 477461.5294
 -1530.685746 -127.8752197 477461.5293
 -4469.215266 15.49305425 477443.0827
 -7040.420052 310.1691778 477411.9894
 -8998.865384 790.834676 477378.5356
 -10456.83199 1890.584143 477345.736
 0 0 0
 8078.902986 -1808.043018 477392.222
 6578.380896 -2132.665062 477413.9168
 4156.754096 -2570.428597 477438.9862
 1420.514989 -2794.995981 477453.7061
 -1420.536596 -2794.996061 477453.706
 -4156.774783 -2570.429013 477438.9861
 -6578.401783 -2132.666388 477413.9165
 -8078.924664 -1808.044926 477392.2216
 0 0 -0
 0 0 0
 7685.114046 -3302.117887 477390.7271
 6241.784384 -3664.687541 477409.1343
 3656.17748 -4540.067177 477428.415
 1243.307096 -4841.650327 477437.8325
 -1243.328362 -4841.650527 477437.8324
 -3656.197907 -4540.067157 477428.4148
 -6241.804878 -3664.689416 477409.134
 -7685.135489 -3302.120312 477390.7268
 0 0 -0
 0 0 0
 0 0 0
 0 0 0
 2521.290437 -5994.841839 477419.7066
 978.9443903 -6076.555856 477424.3274
 -978.9654254 -6076.555618 477424.3274
 -2521.31085 -5994.842215 477419.7065
 0 0 -0
 0 0 -0
 0 0 -0
 0 0 0
 0 0 0
 0 0 0
 1965.008681 12388.64399 477299.2055
 762.4373764 12426.56611 477301.6556
 -762.4622786 12426.56631 477301.6556
 -1965.03264 12388.64256 477299.2054
 0 0 -0
 0 0 -0
 0 0 -0
 0 0 0
 5995.722601 10293.09379 477315.383
 4829.147456 10553.81617 477322.9175
 2813.761122 11250.87833 477323.1314
 956.347447 11483.31841 477324.9314
 -956.3719742 11483.31789 477324.9313
 -2813.784811 11250.87642 477323.1313
 -4829.171668 10553.81448 477322.9173
 -5995.746594 10293.09256 477315.3827
 0 0 -0
 0 0 0
 6226.687603 9175.329464 477335.2208
 5054.628261 9411.507117 477344.4726
 3183.242837 9754.975081 477353.7249
 1086.332151 9932.454846 477359.4427
 -1086.355274 9932.454163 477359.4426
 -3183.265305 9754.973036 477353.7248
 -5054.650902 9411.504958 477344.4724
 -6226.710303 9175.32747 477335.2205
 0 0 -0
 8014.828005 6289.489004 477355.2934
 6880.92951 7171.890519 477360.5431
 5375.537887 7559.448173 477373.8887
 3407.104843 7799.264714 477388.1381
 1165.914465 7917.210246 477396.931
 -1165.935007 7917.209033 477396.931
 -3407.125708 7799.262522 477388.138
 -5375.558545 7559.445163 477373.8885
 -6880.950109 7171.887083 477360.5428
 -8014.847488 6289.484826 477355.2931
 8048.598286 5117.971263 477368.723
 7098.42409 5328.261977 477381.4966
 5538.686905 5474.580071 477400.4851
 3514.319511 5567.074085 477418.6093
 1203.594457 5612.406162 477429.4959
 -1203.613711 5612.405402 477429.4959
 -3514.338905 5567.072191 477418.6092
 -5538.706335 5474.578052 477400.4849
 -7098.44286 5328.258649 477381.4964
 -8048.616868 5117.96716 477368.7228
 8028.434973 3613.007647 477382.8251
 7085.925803 3427.813707 477399.1109
 5530.404291 3309.838115 477420.4969
 3509.638165 3239.47074 477440.111
 1202.107162 3206.211431 477451.7216
 -1202.125344 3206.211162 477451.7215
 -3509.655961 3239.47005 477440.1108
 -5530.422069 3309.836792 477420.4967
 -7085.944056 3427.81217 477399.1106
 -8028.453441 3613.005963 477382.8248
 7961.66972 2411.817615 477391.523
 6844.35579 1580.152918 477412.3262
 5348.202711 1219.176228 477432.4891
 3391.998241 998.7883462 477450.9064
 1161.20772 891.845122 477461.755
 -1161.224552 891.8448445 477461.755
 -3392.014593 998.7881079 477450.9063
 -5348.219105 1219.175781 477432.4889
 -6844.372827 1580.151818 477412.326
 -7961.687941 2411.81697 477391.5227
 0 0 0
 6141.594673 -399.1122677 477424.332
 4997.546051 -642.7085113 477437.4124
 3155.731415 -970.9281223 477452.584
 1077.952919 -1138.857038 477461.425
 -1077.96888 -1138.856531 477461.4249
 -3155.746733 -970.9277607 477452.5839
 -4997.561149 -642.7086529 477437.4122
 -6141.610415 -399.1127134 477424.3318
 0 0 -0
 0 0 0
 5840.185282 -1545.186789 477425.7805
 4743.356102 -1816.988582 477436.9806
 2776.808636 -2477.185111 477449.4991
 943.6889053 -2703.892811 477455.4112
 -943.7056013 -2703.892426 477455.4112
 -2776.824172 -2477.184983 477449.499
 -4743.371744 -1816.989664 477436.9804
 -5840.200901 -1545.188213 477425.7804
 0 0 -0
 0 0 0
 0 0 0
 0 0 0
 1911.826962 -3591.069441 477446.6676
 742.1903659 -3653.723286 477449.4431
 -742.2068766 -3653.723143 477449.4431
 -1911.842734 -3591.068553 477446.6676
 0 0 -0
 0 0 -0
 0 0 -0
 0 0 0
 0 0 0
 0 0 0
 1495.803173 10387.4237 477348.6517
 580.2133693 10411.68259 477350.1142
 -580.2332076 10411.68251 477350.1142
 -1495.823531 10387.42291 477348.6517
 0 0 -0
 0 0 -0
 0 0 -0
 0 0 0
 4570.578408 8792.83932 477361.1495
 3673.746442 8984.885637 477365.3179
 2137.05863 9515.21156 477364.3944
 725.9683051 9689.96909 477365.1105
 -725.9888189 9689.968693 477365.1105
 -2137.079102 9515.209809 477364.3943
 -3673.766356 8984.88401 477365.3178
 -4570.599226 8792.838055 477361.1494
 0 0 -0
 0 0 0
 4734.515119 7943.881655 477374.4342
 3838.421853 8118.0453 477379.5504
 2414.053476 8376.433297 477384.4143
 823.2648294 8509.750927 477387.4503
 -823.2844083 8509.749994 477387.4502
 -2414.072894 8376.431383 477384.4142
 -3838.440824 8118.043483 477379.5503
 -4734.534345 7943.879634 477374.434
 0 0 -0
 6094.056 5745.128051 477390.5396
 5224.589074 6418.752901 477392.2649
 4076.095796 6712.407285 477399.4138
 2580.552094 6893.334119 477407.2622
 882.5155954 6982.160081 477412.13
 -882.5330274 6982.159517 477412.13
 -2580.569014 6893.331859 477407.2621
 -4076.112301 6712.405204 477399.4137
 -5224.605903 6418.750487 477392.2647
 -6094.071224 5745.125049 477390.5394
 6115.18201 4859.280362 477400.1081
 5386.02076 5020.45125 477407.2236
 4196.594716 5132.782862 477417.9662
 2659.850738 5203.715986 477428.2332
 910.4250033 5238.452525 477434.3945
 -910.4401405 5238.451757 477434.3945
 -2659.865663 5203.714929 477428.2331
 -4196.60949 5132.781505 477417.9661
 -5386.036231 5020.449219 477407.2234
 -6115.197073 4859.27762 477400.108
 6096.417901 3717.26178 477410.6062
 5374.796054 3579.362883 477420.3295
 4189.336616 3493.019212 477432.843
 2655.823477 3442.118892 477444.2059
 909.1617338 3418.235323 477450.8984
 -909.1752678 3418.235273 477450.8984
 -2655.837383 3442.11852 477444.2058
 -4189.350655 3493.019279 477432.8429
 -5374.810581 3579.362698 477420.3293
 -6096.432868 3717.261839 477410.606
 6044.532075 2801.96509 477417.5153
 5191.7029 2176.370879 477430.8127
 4051.806408 1907.080081 477442.9989
 2567.374714 1743.635422 477453.9136
 878.4656049 1664.668425 477460.2899
 -878.4776428 1664.668636 477460.2899
 -2567.386409 1743.635658 477453.9135
 -4051.818851 1907.080771 477442.9988
 -5191.716141 2176.371217 477430.8126
 -6044.546961 2801.965741 477417.5151
 0 0 0
 4655.874088 673.1805697 477440.8246
 3786.389323 490.5985061 477448.7343
 2389.598595 245.7385289 477457.957
 815.9162415 120.9527604 477463.2875
 -815.927975 120.9531539 477463.2875
 -2389.609734 245.739739 477457.957
 -3786.400534 490.5994756 477448.7342
 -4655.885546 673.1812537 477440.8245
 0 0 -0
 0 0 0
 4423.966389 -204.7747778 477443.4604
 3594.446031 -408.7527311 477450.295
 2103.81915 -904.6620956 477458.508
 714.5955618 -1074.535918 477462.2561
 -714.6069534 -1074.535233 477462.2561
 -2103.829921 -904.6611229 477458.5079
 -3594.456102 -408.752165 477450.2949
 -4423.977137 -204.7748851 477443.4603
 0 0 -0
 0 0 0
 0 0 0
 0 0 0
 1446.28764 -1755.312347 477458.5829
 561.380698 -1804.106899 477460.2615
 -561.3922489 -1804.106555 477460.2615
 -1446.298161 -1755.310766 477458.5829
 0 0 -0
 0 0 -0
 0 0 -0
 0 0 0
 0 0 0
 0 0 0
 1137.617126 8840.686046 477380.7908
 441.135225 8855.183046 477381.6737
 -441.1526273 8855.182899 477381.6737
 -1137.634862 8840.685808 477380.7907
 0 0 -0
 0 0 -0
 0 0 -0
 0 0 0
 3480.007261 7630.164947 477390.3449
 2790.702858 7771.270139 477392.5959
 1620.638155 8174.529224 477391.2671
 550.2891509 8305.803395 477391.4349
 -550.3066714 8305.803497 477391.4349
 -1620.656332 8174.527879 477391.2671
 -2790.721769 7771.268997 477392.5958
 -3480.025791 7630.163582 477390.3448
 0 0 -0
 0 0 0
 3594.870649 6988.30156 477399.3212
 2910.620967 7116.486644 477402.0896
 1827.995399 7310.919731 477404.5247
 622.966516 7411.132103 477406.0728
 -622.9829623 7411.131582 477406.0728