# OOMMF OVF 2.0
#
# Segment count: 1
#
# Begin: Segment
# Begin: Header
#
# Title: Oxs_MinDriver::Magnetization
# Desc: Oxs vector field output
# Desc:  MIF source file: F:/Bogdan/UNIC/2022/Master_degree/Simulation_samples/Cylinder0_5000 1.mif
# Desc:  Iteration: 1710, State id: 3682
# Desc:  Stage: 6, Stage iteration: 69
# Desc:  Stage simulation time: 0 s
# Desc:  Total simulation time: -2 s
# meshunit: m
# meshtype: rectangular
# xbase: -8.9999999999999995e-09
# ybase: -8.9999999999999995e-09
# zbase: -8.6999999999999998e-08
# xnodes: 10
# ynodes: 10
# znodes: 88
# xstepsize: 2.0000000000000001e-09
# ystepsize: 2.0000000000000001e-09
# zstepsize: 2.0000000000000001e-09
# xmin: -1e-08
# ymin: -1e-08
# zmin: -8.7999999999999994e-08
# xmax: 1e-08
# ymax: 1e-08
# zmax: 8.800000000000002e-08
# valuedim: 3
# valuelabels: Magnetization_x Magnetization_y Magnetization_z
# valueunits: A/m A/m A/m
#
# End: Header
#
# Begin: Data Text
 0 0 0
 0 0 0
 0 0 0
 7800.376243 29207.19708 476505.9969
 2931.047972 29406.56141 476548.5646
 -2931.047972 29406.56141 476548.5646
 -7800.376243 29207.19708 476505.9969
 0 0 -0
 0 0 -0
 0 0 -0
 0 0 0
 21707.05978 21707.05977 476476.1048
 17224.85714 22611.18605 476617.1523
 10204.1298 24498.50867 476725.8857
 3447.692005 24995.15969 476796.8401
 -3447.692005 24995.15969 476796.8401
 -10204.1298 24498.50868 476725.8857
 -17224.85714 22611.18605 476617.1523
 -21707.05978 21707.05978 476476.1048
 0 0 -0
 0 0 0
 22611.18605 17224.85714 476617.1523
 17746.69213 17746.69212 476803.9232
 10985.71055 18465.16531 476980.3173
 3712.300457 18775.87585 477080.2413
 -3712.300457 18775.87586 477080.2413
 -10985.71055 18465.1653 476980.3173
 -17746.69213 17746.69212 476803.9232
 -22611.18605 17224.85714 476617.1523
 0 0 -0
 29207.19708 7800.376244 476505.9969
 24498.50868 10204.1298 476725.8857
 18465.16529 10985.71056 476980.3173
 11403.3876 11403.38758 477191.5724
 3850.60761 11585.12212 477307.8975
 -3850.60761 11585.12211 477307.8975
 -11403.3876 11403.38759 477191.5724
 -18465.1653 10985.71056 476980.3173
 -24498.50868 10204.1298 476725.8857
 -29207.19708 7800.376244 476505.9969
 29406.56141 2931.04797 476548.5646
 24995.15968 3447.692013 476796.8401
 18775.87587 3712.300445 477080.2413
 11585.1221 3850.607627 477307.8975
 3910.797618 3910.797597 477431.9665
 -3910.797618 3910.797604 477431.9665
 -11585.1221 3850.607621 477307.8975
 -18775.87587 3712.30045 477080.2413
 -24995.15968 3447.69201 476796.8401
 -29406.56141 2931.047971 476548.5646
 29406.56141 -2931.04797 476548.5646
 24995.1597 -3447.692012 476796.8401
 18775.87584 -3712.300445 477080.2413
 11585.12213 -3850.607627 477307.8975
 3910.797581 -3910.797597 477431.9665
 -3910.797582 -3910.797604 477431.9665
 -11585.12213 -3850.607621 477307.8975
 -18775.87584 -3712.30045 477080.2413
 -24995.15969 -3447.69201 476796.8401
 -29406.56141 -2931.047971 476548.5646
 29207.19709 -7800.376244 476505.9969
 24498.50867 -10204.1298 476725.8857
 18465.16532 -10985.71056 476980.3173
 11403.38757 -11403.38758 477191.5724
 3850.607642 -11585.12212 477307.8975
 -3850.607642 -11585.12211 477307.8975
 -11403.38757 -11403.38759 477191.5724
 -18465.16532 -10985.71056 476980.3173
 -24498.50867 -10204.1298 476725.8857
 -29207.19709 -7800.376244 476505.9969
 0 0 0
 22611.18605 -17224.85714 476617.1523
 17746.69211 -17746.69212 476803.9232
 10985.71057 -18465.16531 476980.3173
 3712.300433 -18775.87585 477080.2413
 -3712.300433 -18775.87586 477080.2413
 -10985.71057 -18465.1653 476980.3173
 -17746.69211 -17746.69212 476803.9232
 -22611.18605 -17224.85714 476617.1523
 0 0 -0
 0 0 0
 21707.05977 -21707.05977 476476.1048
 17224.85714 -22611.18605 476617.1523
 10204.12979 -24498.50867 476725.8857
 3447.69202 -24995.15969 476796.8401
 -3447.69202 -24995.15969 476796.8401
 -10204.12979 -24498.50868 476725.8857
 -17224.85714 -22611.18605 476617.1523
 -21707.05977 -21707.05978 476476.1048
 0 0 -0
 0 0 0
 0 0 0
 0 0 0
 7800.376246 -29207.19708 476505.9969
 2931.047968 -29406.56141 476548.5646
 -2931.047968 -29406.56141 476548.5646
 -7800.376246 -29207.19708 476505.9969
 0 0 -0
 0 0 -0
 0 0 -0
 0 0 0
 0 0 0
 0 0 0
 6497.664415 25146.9797 476757.0462
 2499.740829 25333.23522 476784.9094
 -2499.740829 25333.23522 476784.9094
 -6497.664415 25146.9797 476757.0462
 0 0 -0
 0 0 -0
 0 0 -0
 0 0 0
 18653.80055 18653.80055 476734.667
 15014.05585 19510.23544 476828.9003
 8872.454977 21432.19646 476900.2116
 3017.708544 22013.15198 476946.7327
 -3017.708544 22013.15199 476946.7327
 -8872.454978 21432.19645 476900.2116
 -15014.05585 19510.23544 476828.9003
 -18653.80055 18653.80055 476734.667
 0 0 -0
 0 0 0
 19510.23545 15014.05584 476828.9003
 15628.32793 15628.32796 476952.18
 9763.200209 16429.49725 477081.3587
 3314.508288 16799.00845 477156.8701
 -3314.508289 16799.00844 477156.8701
 -9763.200209 16429.49726 477081.3587
 -15628.32793 15628.32795 476952.18
 -19510.23545 15014.05584 476828.9003
 0 0 -0
 25146.9797 6497.664411 476757.0462
 21432.19644 8872.454994 476900.2116
 16429.49728 9763.200179 477081.3587
 10245.68001 10245.68006 477244.092
 3474.763197 10459.92574 477336.7651
 -3474.763197 10459.92576 477336.7651
 -10245.68001 10245.68004 477244.092
 -16429.49728 9763.200191 477081.3587
 -21432.19644 8872.454987 476900.2116
 -25146.9797 6497.664413 476757.0462
 25333.23521 2499.740835 476784.9094
 22013.15201 3017.708523 476946.7327
 16799.00841 3314.508324 477156.8701
 10459.9258 3474.763148 477336.7651
 3545.386193 3545.386252 477437.6732
 -3545.386193 3545.386232 477437.6732
 -10459.9258 3474.763166 477336.7651
 -16799.00841 3314.50831 477156.8701
 -22013.15201 3017.708532 476946.7327
 -25333.23521 2499.740833 476784.9094
 25333.23523 -2499.740835 476784.9094
 22013.15197 -3017.708523 476946.7327
 16799.00848 -3314.508324 477156.8701
 10459.9257 -3474.763148 477336.7651
 3545.386295 -3545.386252 477437.6732
 -3545.386295 -3545.386232 477437.6732
 -10459.92571 -3474.763166 477336.7651
 -16799.00848 -3314.50831 477156.8701
 -22013.15197 -3017.708532 476946.7327
 -25333.23523 -2499.740833 476784.9094
 25146.97969 -6497.664411 476757.0462
 21432.19647 -8872.454994 476900.2116
 16429.49722 -9763.200179 477081.3587
 10245.68009 -10245.68006 477244.092
 3474.763107 -10459.92574 477336.7651
 -3474.763107 -10459.92576 477336.7651
 -10245.68009 -10245.68004 477244.092
 -16429.49722 -9763.20019 477081.3587
 -21432.19647 -8872.454987 476900.2116
 -25146.9797 -6497.664413 476757.0462
 0 0 0
 19510.23543 -15014.05584 476828.9003
 15628.32797 -15628.32796 476952.18
 9763.20015 -16429.49725 477081.3587
 3314.508358 -16799.00845 477156.8701
 -3314.508357 -16799.00844 477156.8701
 -9763.20015 -16429.49726 477081.3587
 -15628.32797 -15628.32795 476952.18
 -19510.23543 -15014.05584 476828.9003
 0 0 -0
 0 0 0
 18653.80055 -18653.80055 476734.667
 15014.05583 -19510.23544 476828.9003
 8872.455011 -21432.19645 476900.2116
 3017.708502 -22013.15198 476946.7327
 -3017.708502 -22013.15199 476946.7327
 -8872.455011 -21432.19645 476900.2116
 -15014.05583 -19510.23544 476828.9003
 -18653.80055 -18653.80055 476734.667
 0 0 -0
 0 0 0
 0 0 0
 0 0 0
 6497.664407 -25146.9797 476757.0462
 2499.740842 -25333.23522 476784.9094
 -2499.740842 -25333.23522 476784.9094
 -6497.664407 -25146.9797 476757.0462
 0 0 -0
 0 0 -0
 0 0 -0
 0 0 0
 0 0 0
 0 0 0
 5161.048896 20365.44613 477001.555
 1998.5331 20523.54353 477018.5126
 -1998.5331 20523.54354 477018.5126
 -5161.048897 20365.44613 477001.555
 0 0 -0
 0 0 -0
 0 0 -0
 0 0 0
 15100.98028 15100.98027 476986.155
 12223.91174 15829.95604 477044.9243
 7213.208166 17496.81459 477088.7783
 2459.044411 18042.8519 477116.6313
 -2459.044411 18042.85189 477116.6313
 -7213.208165 17496.8146 477088.7783
 -12223.91174 15829.95604 477044.9243
 -15100.98028 15100.98027 476986.155
 0 0 -0
 0 0 0
 15829.95603 12223.91175 477044.9243
 12810.88308 12810.88305 477120.1461
 8059.134785 13577.08369 477202.8756
 2746.604667 13950.16162 477252.2608
 -2746.604667 13950.16165 477252.2608
 -8059.134786 13577.08367 477202.8756
 -12810.88308 12810.88306 477120.1461
 -15829.95603 12223.91175 477044.9243
 0 0 -0
 20365.44613 5161.048902 477001.555
 17496.81462 7213.208142 477088.7783
 13577.08364 8059.134829 477202.8756
 8544.058025 8544.057962 477311.0825
 2910.964138 8767.937014 477374.6127
 -2910.964139 8767.936987 477374.6127
 -8544.058024 8544.057986 477311.0825
 -13577.08364 8059.134812 477202.8756
 -17496.81462 7213.208152 477088.7783
 -20365.44613 5161.0489 477001.555
 20523.54355 1998.533091 477018.5126
 18042.85186 2459.04444 477116.6313
 13950.16168 2746.604616 477252.2608
 8767.936937 2910.96421 477374.6127
 2985.832828 2985.832741 477445.3277
 -2985.832827 2985.832772 477445.3277
 -8767.936938 2910.964183 477374.6127
 -13950.16168 2746.604637 477252.2608
 -18042.85187 2459.044428 477116.6313
 -20523.54354 1998.533095 477018.5126
 20523.54353 -1998.533091 477018.5126
 18042.85193 -2459.04444 477116.6313
 13950.16158 -2746.604616 477252.2608
 8767.93707 -2910.96421 477374.6127
 2985.832679 -2985.832741 477445.3277
 -2985.832679 -2985.832772 477445.3277
 -8767.937068 -2910.964183 477374.6127
 -13950.16158 -2746.604637 477252.2608
 -18042.85193 -2459.044428 477116.6313
 -20523.54353 -1998.533095 477018.5126
 20365.44614 -5161.048902 477001.555
 17496.81457 -7213.208142 477088.7783
 13577.08373 -8059.134829 477202.8756
 8544.057909 -8544.057962 477311.0825
 2910.96427 -8767.937014 477374.6127
 -2910.96427 -8767.936987 477374.6127
 -8544.05791 -8544.057986 477311.0825
 -13577.08373 -8059.134812 477202.8756
 -17496.81457 -7213.208152 477088.7783
 -20365.44614 -5161.0489 477001.555
 0 0 0
 15829.95606 -12223.91175 477044.9243
 12810.88302 -12810.88305 477120.1461
 8059.134871 -13577.08369 477202.8756
 2746.604567 -13950.16162 477252.2608
 -2746.604567 -13950.16165 477252.2608
 -8059.134871 -13577.08367 477202.8756
 -12810.88302 -12810.88306 477120.1461
 -15829.95606 -12223.91175 477044.9243
 0 0 -0
 0 0 0
 15100.98027 -15100.98027 476986.155
 12223.91176 -15829.95604 477044.9243
 7213.208117 -17496.81459 477088.7783
 2459.044472 -18042.8519 477116.6313
 -2459.044471 -18042.85189 477116.6313
 -7213.208117 -17496.8146 477088.7783
 -12223.91176 -15829.95604 477044.9243
 -15100.98027 -15100.98027 476986.155
 0 0 -0
 0 0 0
 0 0 0
 0 0 0
 5161.048908 -20365.44613 477001.555
 1998.533081 -20523.54353 477018.5126
 -1998.533081 -20523.54354 477018.5126
 -5161.048908 -20365.44613 477001.555
 0 0 -0
 0 0 -0
 0 0 -0
 0 0 0
 0 0 0
 0 0 0
 4001.674072 15963.69635 477180.2786
 1551.773685 16087.47137 477190.3777
 -1551.773685 16087.47136 477190.3777
 -4001.674072 15963.69635 477180.2786
 0 0 -0
 0 0 -0
 0 0 -0
 0 0 0
 11838.86129 11838.8613 477170.3616
 9597.980214 12415.93196 477206.0296
 5655.950835 13755.11499 477232.3106
 1928.893802 14208.9572 477248.6314
 -1928.893801 14208.95722 477248.6314
 -5655.950836 13755.11497 477232.3106
 -9597.980214 12415.93196 477206.0296
 -11838.86129 11838.8613 477170.3616
 0 0 -0
 0 0 0
 12415.93197 9597.9802 477206.0296
 10089.27742 10089.27745 477250.7562
 6369.259975 10738.88335 477300.723
 2175.340142 11065.133 477330.8098
 -2175.340143 11065.13297 477330.8098
 -6369.259974 10738.88337 477300.723
 -10089.27742 10089.27744 477250.7562
 -12415.93197 9597.980206 477206.0296
 0 0 -0
 15963.69636 4001.674066 477180.2786
 13755.11495 5655.950862 477232.3107
 10738.8834 6369.259926 477300.723
 6795.198389 6795.198461 477367.2819
 2322.258784 6997.794574 477407.0687
 -2322.258784 6997.794606 477407.0687
 -6795.198391 6795.198432 477367.2819
 -10738.8834 6369.259947 477300.723
 -13755.11496 5655.95085 477232.3107
 -15963.69636 4001.674068 477180.2786
 16087.47136 1551.773695 477190.3777
 14208.95724 1928.893769 477248.6314
 11065.13293 2175.340199 477330.8098
 6997.794661 2322.258704 477407.0687
 2391.139616 2391.139715 477452.025
 -2391.139617 2391.139678 477452.025
 -6997.79466 2322.258736 477407.0687
 -11065.13293 2175.340174 477330.8098
 -14208.95724 1928.893784 477248.6314
 -16087.47136 1551.773691 477190.3777
 16087.47138 -1551.773695 477190.3777
 14208.95717 -1928.893769 477248.6314
 11065.13305 -2175.340199 477330.8098
 6997.794512 -2322.258704 477407.0687
 2391.139784 -2391.139715 477452.025
 -2391.139783 -2391.139678 477452.025
 -6997.794514 -2322.258736 477407.0687
 -11065.13304 -2175.340175 477330.8098
 -14208.95718 -1928.893784 477248.6314
 -16087.47138 -1551.773691 477190.3777
 15963.69634 -4001.674066 477180.2786
 13755.11501 -5655.950862 477232.3106
 10738.8833 -6369.259926 477300.723
 6795.19852 -6795.19846 477367.2819
 2322.258636 -6997.794574 477407.0687
 -2322.258637 -6997.794606 477407.0687
 -6795.198518 -6795.198432 477367.2819
 -10738.8833 -6369.259947 477300.723
 -13755.11501 -5655.95085 477232.3106
 -15963.69634 -4001.674068 477180.2786
 0 0 0
 12415.93195 -9597.980201 477206.0296
 10089.27748 -10089.27745 477250.7562
 6369.259878 -10738.88335 477300.723
 2175.340255 -11065.133 477330.8098
 -2175.340255 -11065.13298 477330.8098
 -6369.25988 -10738.88337 477300.723
 -10089.27748 -10089.27744 477250.7562
 -12415.93195 -9597.980206 477206.0296
 0 0 -0
 0 0 0
 11838.8613 -11838.8613 477170.3616
 9597.980187 -12415.93196 477206.0296
 5655.95089 -13755.11499 477232.3106
 1928.893733 -14208.9572 477248.6314
 -1928.893734 -14208.95722 477248.6314
 -5655.95089 -13755.11497 477232.3106
 -9597.980187 -12415.93196 477206.0296
 -11838.8613 -11838.8613 477170.3616
 0 0 -0
 0 0 0
 0 0 0
 0 0 0
 4001.674059 -15963.69635 477180.2786
 1551.773707 -16087.47137 477190.3777
 -1551.773707 -16087.47137 477190.3777
 -4001.674059 -15963.69635 477180.2786
 0 0 -0
 0 0 -0
 0 0 -0
 0 0 0
 0 0 0
 0 0 0
 3059.000482 12281.59098 477296.2145
 1186.417183 12373.66284 477302.1644
 -1186.417183 12373.66284 477302.1644
 -3059.000482 12281.59098 477296.2145
 0 0 -0
 0 0 -0
 0 0 -0
 0 0 0
 9111.149983 9111.149978 477290.1059
 7385.045729 9549.307168 477311.3692
 4345.536135 10585.91287 477326.8545
 1481.499395 10940.75471 477336.3346
 -1481.499396 10940.75469 477336.3346
 -4345.536135 10585.91288 477326.8545
 -7385.045729 9549.307161 477311.3692
 -9111.149982 9111.14998 477290.1059
 0 0 -0
 0 0 0
 9549.307154 7385.045742 477311.3692
 7768.330051 7768.330019 477337.5927
 4909.503577 8282.249786 477366.9159
 1678.127197 8544.269705 477384.5941
 -1678.127197 8544.269732 477384.5941
 -4909.503578 8282.249763 477366.9159
 -7768.33005 7768.330035 477337.5927
 -9549.307155 7385.045735 477311.3692
 0 0 -0
 12281.59097 3059.000487 477296.2145
 10585.9129 4345.536111 477326.8545
 8282.249735 4909.503623 477366.9159
 5253.398047 5253.39798 477406.1949
 1798.065222 5419.770891 477429.8528
 -1798.065222 5419.770856 477429.8528
 -5253.398046 5253.398011 477406.1949
 -8282.249737 4909.5036 477366.9159
 -10585.9129 4345.536124 477326.8545
 -12281.59097 3059.000484 477296.2145
 12373.66285 1186.417174 477302.1644
 10940.75467 1481.499425 477336.3346
 8544.269769 1678.127144 477384.5941
 5419.770808 1798.065297 477429.8528
 1855.302335 1855.302241 477456.7907
 -1855.302334 1855.302281 477456.7907
 -5419.77081 1798.065262 477429.8528
 -8544.269767 1678.127171 477384.5941
 -10940.75467 1481.499409 477336.3346
 -12373.66285 1186.417179 477302.1644
 12373.66283 -1186.417174 477302.1644
 10940.75473 -1481.499425 477336.3346
 8544.269663 -1678.127144 477384.5941
 5419.770947 -1798.065297 477429.8528
 1855.302179 -1855.302242 477456.7907
 -1855.30218 -1855.302281 477456.7907
 -5419.770945 -1798.065262 477429.8528
 -8544.269665 -1678.127171 477384.5941
 -10940.75473 -1481.499409 477336.3346
 -12373.66283 -1186.417179 477302.1644
 12281.59099 -3059.000487 477296.2145
 10585.91285 -4345.536111 477326.8545
 8282.249826 -4909.503623 477366.9159
 5253.397926 -5253.397981 477406.1949
 1798.065359 -5419.770891 477429.8528
 -1798.065358 -5419.770856 477429.8528
 -5253.397928 -5253.398011 477406.1949
 -8282.249824 -4909.5036 477366.9159
 -10585.91285 -4345.536124 477326.8545
 -12281.59099 -3059.000484 477296.2145
 0 0 0
 9549.30718 -7385.045741 477311.3692
 7768.32999 -7768.330019 477337.5927
 4909.503667 -8282.249786 477366.9159
 1678.127092 -8544.269705 477384.5941
 -1678.127093 -8544.269732 477384.5941
 -4909.503666 -8282.249763 477366.9159
 -7768.329991 -7768.330034 477337.5927
 -9549.307179 -7385.045735 477311.3692
 0 0 -0
 0 0 0
 9111.149974 -9111.149978 477290.1059
 7385.045754 -9549.307168 477311.3692
 4345.536084 -10585.91287 477326.8545
 1481.499459 -10940.75471 477336.3346
 -1481.499458 -10940.75469 477336.3346
 -4345.536085 -10585.91288 477326.8545
 -7385.045754 -9549.307161 477311.3692
 -9111.149974 -9111.14998 477290.1059
 0 0 -0
 0 0 0
 0 0 0
 0 0 0
 3059.000494 -12281.59098 477296.2145
 1186.417163 -12373.66284 477302.1644
 -1186.417163 -12373.66284 477302.1644
 -3059.000494 -12281.59098 477296.2145
 0 0 -0
 0 0 -0
 0 0 -0
 0 0 0
 0 0 0
 0 0 0
 2320.944781 9354.509268 477366.7119
 900.010928 9421.139136 477370.1954
 -900.0109281 9421.13913 477370.1954
 -2320.944781 9354.509271 477366.7119
 0 0 -0
 0 0 -0
 0 0 -0
 0 0 0
 6942.404948 6942.404951 477363.0456
 5622.022738 7267.987374 477375.576
 3303.298863 8055.843875 477384.6069
 1125.496762 8325.077109 477390.0896
 -1125.496761 8325.077127 477390.0896
 -3303.298864 8055.843861 477384.6069
 -5622.022738 7267.987381 477375.576
 -6942.404948 6942.404949 477363.0456
 0 0 -0
 0 0 0
 7267.987385 5622.022728 477375.576
 5910.49853 5910.498556 477390.8287
 3734.48166 6302.409222 477407.7969
 1276.469094 6503.358231 477418.0016
 -1276.469094 6503.358202 477418.0016
 -3734.481659 6302.409247 477407.7969
 -5910.498532 5910.498539 477390.8287
 -7267.987384 5622.022735 477375.576
 0 0 -0
 9354.509274 2320.944777 477366.7119
 8055.843852 3303.298882 477384.6069
 6302.409263 3734.481624 477407.7969
 3999.343029 3999.343083 477430.4995
 1369.390175 4128.428542 477444.1875
 -1369.390175 4128.428579 477444.1875
 -3999.343031 3999.34305 477430.4995
 -6302.409261 3734.481648 477407.7969
 -8055.843853 3303.298869 477384.6069
 -9354.509273 2320.94478 477366.7119
 9421.139125 900.010935 477370.1954
 8325.077142 1125.496738 477390.0896
 6503.358178 1276.469136 477418.0016
 4128.42861 1369.390115 477444.1875
 1414.101819 1414.101895 477459.8118
 -1414.10182 1414.101853 477459.8118
 -4128.428608 1369.390152 477444.1875
 -6503.35818 1276.469107 477418.0016
 -8325.07714 1125.496755 477390.0896
 -9421.139126 900.0109296 477370.1954
 9421.139141 -900.010935 477370.1954
 8325.077092 -1125.496738 477390.0896
 6503.35826 -1276.469135 477418.0016
 4128.428504 -1369.390115 477444.1875
 1414.101937 -1414.101895 477459.8118
 -1414.101937 -1414.101854 477459.8118
 -4128.428506 -1369.390152 477444.1875
 -6503.358257 -1276.469108 477418.0016
 -8325.077094 -1125.496755 477390.0896
 -9421.139141 -900.0109297 477370.1954
 9354.509264 -2320.944777 477366.7119
 8055.843891 -3303.298882 477384.6069
 6302.409194 -3734.481624 477407.7969
 3999.343121 -3999.343082 477430.4995
 1369.390071 -4128.428542 477444.1875
 -1369.390072 -4128.428579 477444.1875
 -3999.34312 -3999.343051 477430.4995
 -6302.409196 -3734.481648 477407.7969
 -8055.84389 -3303.298869 477384.6069
 -9354.509265 -2320.94478 477366.7119
 0 0 0
 7267.987365 -5622.022728 477375.576
 5910.498577 -5910.498556 477390.8287
 3734.481592 -6302.409223 477407.7969
 1276.469174 -6503.35823 477418.0016
 -1276.469173 -6503.358203 477418.0016
 -3734.481593 -6302.409246 477407.7969
 -5910.498576 -5910.49854 477390.8287
 -7267.987366 -5622.022735 477375.576
 0 0 -0
 0 0 0
 6942.404954 -6942.404951 477363.0456
 5622.022719 -7267.987374 477375.576
 3303.298902 -8055.843875 477384.6069
 1125.496714 -8325.07711 477390.0896
 -1125.496714 -8325.077126 477390.0896
 -3303.298901 -8055.843862 477384.6069
 -5622.022719 -7267.987381 477375.576
 -6942.404954 -6942.404949 477363.0456
 0 0 -0
 0 0 0
 0 0 0
 0 0 0
 2320.944772 -9354.509268 477366.7119
 900.0109432 -9421.139136 477370.1954
 -900.0109431 -9421.13913 477370.1954
 -2320.944772 -9354.509271 477366.7119
 0 0 -0
 0 0 -0
 0 0 -0
 0 0 0
 0 0 0
 0 0 0
 1757.027475 7097.788033 477408.0074
 681.1381737 7145.45529 477410.0437
 -681.1381737 7145.455296 477410.0437
 -1757.027475 7097.788029 477408.0074
 0 0 -0
 0 0 -0
 0 0 -0
 0 0 0
 5269.811873 5269.81187 477405.8331
 4262.532036 5509.64745 477413.1815
 2501.130354 6103.935907 477418.4303
 851.602369 6305.56018 477421.6019
 -851.6023692 6305.560161 477421.6019
 -2501.130353 6103.935923 477418.4303
 -4262.532036 5509.647442 477413.1815
 -5269.811873 5269.811873 477405.8331
 0 0 -0
 0 0 0
 5509.647443 4262.532042 477413.1815
 4476.165274 4476.165257 477422.0347
 2825.660032 4769.90949 477431.8118
 965.3924398 4920.584951 477437.6683
 -965.3924394 4920.584982 477437.6683
 -2825.660033 4769.909463 477431.8118
 -4476.165273 4476.165276 477422.0347
 -5509.647443 4262.532035 477413.1815
 0 0 -0
 7097.788029 1757.027478 477408.0074
 6103.935924 2501.130342 477418.4303
 4769.909462 2825.660056 477431.8118
 3024.873203 3024.873166 477444.8362
 1035.457521 3122.090209 477452.6696
 -1035.457522 3122.090168 477452.6696
 -3024.873202 3024.873202 477444.8362
 -4769.909464 2825.660029 477431.8118
 -6103.935922 2501.130357 477418.4303
 -7097.788029 1757.027474 477408.0074
 7145.455298 681.1381693 477410.0437
 6305.560157 851.6023838 477421.6019
 4920.584987 965.3924125 477437.6683
 3122.090161 1035.457562 477452.6696
 1069.23554 1069.235487 477461.6055
 -1069.235539 1069.235533 477461.6055
 -3122.090163 1035.457522 477452.6696
 -4920.584986 965.3924434 477437.6683
 -6305.560159 851.6023651 477421.6019
 -7145.455297 681.1381753 477410.0437
 7145.455289 -681.1381694 477410.0437
 6305.560186 -851.6023838 477421.6019
 4920.584941 -965.3924126 477437.6683
 3122.090221 -1035.457562 477452.6696
 1069.235473 -1069.235487 477461.6055
 -1069.235474 -1069.235533 477461.6055
 -3122.09022 -1035.457522 477452.6696
 -4920.584943 -965.3924433 477437.6683
 -6305.560184 -851.6023652 477421.6019
 -7145.455289 -681.1381752 477410.0437
 7097.788034 -1757.027478 477408.0074
 6103.935901 -2501.130342 477418.4303
 4769.909502 -2825.660055 477431.8118
 3024.873151 -3024.873167 477444.8362
 1035.45758 -3122.090208 477452.6696
 -1035.45758 -3122.090168 477452.6696
 -3024.873152 -3024.873202 477444.8362
 -4769.9095 -2825.66003 477431.8118
 -6103.935902 -2501.130356 477418.4303
 -7097.788034 -1757.027474 477408.0074
 0 0 0
 5509.647454 -4262.532042 477413.1815
 4476.165248 -4476.165258 477422.0347
 2825.66007 -4769.90949 477431.8118
 965.3923951 -4920.584951 477437.6683
 -965.3923954 -4920.584981 477437.6683
 -2825.66007 -4769.909464 477431.8118
 -4476.165249 -4476.165275 477422.0347
 -5509.647453 -4262.532035 477413.1815
 0 0 -0
 0 0 0
 5269.811869 -5269.811871 477405.8331
 4262.532047 -5509.64745 477413.1815
 2501.130332 -6103.935908 477418.4303
 851.602396 -6305.560179 477421.6019
 -851.6023958 -6305.560161 477421.6019
 -2501.130333 -6103.935922 477418.4303
 -4262.532046 -5509.647442 477413.1815
 -5269.811869 -5269.811873 477405.8331
 0 0 -0
 0 0 0
 0 0 0
 0 0 0
 1757.02748 -7097.788033 477408.0074
 681.1381652 -7145.45529 477410.0437
 -681.1381653 -7145.455296 477410.0437
 -1757.02748 -7097.788029 477408.0074
 0 0 -0
 0 0 -0
 0 0 -0
 0 0 0
 0 0 0
 0 0 0
 1332.828029 5390.450456 477431.7102
 516.5132655 5424.524948 477432.9053
 -516.5132655 5424.52494 477432.9053
 -1332.828029 5390.450461 477431.7102
 0 0 -0
 0 0 -0
 0 0 -0
 0 0 0
 4003.937689 4003.937691 477430.4224
 3234.641313 4180.570314 477434.7403
 1895.769305 4628.554189 477437.801
 645.056565 4779.101069 477439.6458
 -645.0565648 4779.101092 477439.6458
 -1895.769306 4628.554171 477437.801
 -3234.641313 4180.570323 477434.7403
 -4003.937689 4003.937688 477430.4224
 0 0 -0
 0 0 0
 4180.570318 3234.64131 477434.7403
 3392.184998 3392.185008 477439.8993
 2138.871539 3611.185561 477445.5528
 730.2801074 3723.252997 477448.9244
 -730.2801076 3723.25296 477448.9244
 -2138.871538 3611.185593 477445.5528
 -3392.184999 3392.184986 477439.8993
 -4180.570318 3234.641319 477434.7403
 0 0 -0
 5390.450459 1332.828028 477431.7102
 4628.554179 1895.769312 477437.801
 3611.185577 2138.871525 477445.5528
 2287.36378 2287.363801 477453.0419
 782.5305832 2359.67212 477457.5278
 -782.5305829 2359.672169 477457.5278
 -2287.363781 2287.363759 477453.0419
 -3611.185576 2138.871557 477445.5528
 -4628.55418 1895.769294 477437.801
 -5390.450458 1332.828032 477431.7102
 5424.524943 516.5132678 477432.9053
 4779.101083 645.056557 477439.6458
 3723.252975 730.2801227 477448.9244
 2359.672148 782.5305595 477457.5278
 807.672806 807.6728377 477462.6337
 -807.6728063 807.6727828 477462.6337
 -2359.672147 782.5306081 477457.5278
 -3723.252976 730.2800856 477448.9244
 -4779.101082 645.0565794 477439.6458
 -5424.524943 516.5132607 477432.9053
 5424.524945 -516.5132678 477432.9053
 4779.101077 -645.0565571 477439.6458
 3723.252985 -730.2801226 477448.9244
 2359.672136 -782.5305596 477457.5278
 807.6728195 -807.6728375 477462.6337
 -807.6728192 -807.672783 477462.6337
 -2359.672137 -782.5306079 477457.5278
 -3723.252984 -730.2800858 477448.9244
 -4779.101078 -645.0565793 477439.6458
 -5424.524945 -516.5132607 477432.9053
 5390.450457 -1332.828028 477431.7102
 4628.554184 -1895.769312 477437.801
 3611.185569 -2138.871525 477445.5528
 2287.363791 -2287.363801 477453.0419
 782.5305713 -2359.67212 477457.5278
 -782.5305716 -2359.672168 477457.5278
 -2287.36379 -2287.363759 477453.0419
 -3611.18557 -2138.871557 477445.5528
 -4628.554184 -1895.769294 477437.801
 -5390.450458 -1332.828032 477431.7102
 0 0 0
 4180.570316 -3234.64131 477434.7403
 3392.185004 -3392.185007 477439.8993
 2138.871531 -3611.185561 477445.5528
 730.2801165 -3723.252996 477448.9244
 -730.2801163 -3723.25296 477448.9244
 -2138.871531 -3611.185592 477445.5528
 -3392.185003 -3392.184986 477439.8993
 -4180.570316 -3234.641319 477434.7403
 0 0 -0
 0 0 0
 4003.93769 -4003.937691 477430.4224
 3234.641311 -4180.570314 477434.7403
 1895.76931 -4628.554189 477437.801
 645.0565595 -4779.10107 477439.6458
 -645.0565596 -4779.101092 477439.6458
 -1895.76931 -4628.554171 477437.801
 -3234.641311 -4180.570323 477434.7403
 -4003.93769 -4003.937688 477430.4224
 0 0 -0
 0 0 0
 0 0 0
 0 0 0
 1332.828028 -5390.450456 477431.7102
 516.5132672 -5424.524947 477432.9053
 -516.5132672 -5424.52494 477432.9053
 -1332.828028 -5390.450461 477431.7102
 0 0 -0
 0 0 -0
 0 0 -0
 0 0 0
 0 0 0
 0 0 0
 1016.602184 4112.923577 477445.2028
 393.8210764 4137.438881 477445.9109
 -393.8210764 4137.43889 477445.9109
 -1016.602184 4112.923572 477445.2028
 0 0 -0
 0 0 -0
 0 0 -0
 0 0 0
 3056.377412 3056.377411 477444.4349
 2466.21242 3187.187288 477446.9928
 1444.008936 3526.290208 477448.7945
 491.0464676 3639.097551 477449.8792
 -491.0464676 3639.097522 477449.8792
 -1444.008936 3526.29023 477448.7945
 -2466.21242 3187.187276 477446.9928
 -3056.377412 3056.377415 477444.4349
 0 0 -0
 0 0 0
 3187.187285 2466.212422 477446.9928
 2582.793381 2582.793375 477450.0284
 1626.539423 2746.455097 477453.3303
 554.9687168 2829.891538 477455.2911
 -554.9687168 2829.891586 477455.2911
 -1626.539423 2746.455056 477453.3303
 -2582.793381 2582.793403 477450.0284
 -3187.187285 2466.21241 477446.9928
 0 0 -0
 4112.923576 1016.602185 477445.2028
 3526.290213 1444.008932 477448.7945
 2746.455087 1626.539431 477453.3303
 1737.263462 1737.263449 477457.6789
 593.9019003 1790.96869 477460.2717
 -593.9019003 1790.968628 477460.2717
 -1737.263462 1737.263503 477457.6789
 -2746.455087 1626.539391 477453.3303
 -3526.290213 1444.008955 477448.7945
 -4112.923576 1016.602179 477445.2028
 4137.438883 393.8210749 477445.9109
 3639.097543 491.0464725 477449.8792
 2829.891551 554.9687075 477455.2911
 1790.968673 593.9019147 477460.2717
 612.5639578 612.5639388 477463.2141
 -612.5639578 612.5640086 477463.2141
 -1790.968673 593.901853 477460.2717
 -2829.891551 554.9687545 477455.2911
 -3639.097543 491.0464441 477449.8792
 -4137.438883 393.8210839 477445.9109
 4137.438887 -393.821075 477445.9109
 3639.097531 -491.0464724 477449.8792
 2829.891571 -554.9687076 477455.2911
 1790.968647 -593.9019145 477460.2717
 612.5639867 -612.563939 477463.2141
 -612.5639868 -612.5640084 477463.2141
 -1790.968647 -593.9018531 477460.2717
 -2829.891571 -554.9687544 477455.2911
 -3639.097531 -491.0464441 477449.8792
 -4137.438887 -393.8210839 477445.9109
 4112.923573 -1016.602185 477445.2028
 3526.290223 -1444.008932 477448.7945
 2746.45507 -1626.539431 477453.3303
 1737.263484 -1737.26345 477457.6789
 593.9018747 -1790.968689 477460.2717
 -593.9018747 -1790.968628 477460.2717
 -1737.263484 -1737.263503 477457.6789
 -2746.45507 -1626.539391 477453.3303
 -3526.290223 -1444.008955 477448.7945
 -4112.923573 -1016.602179 477445.2028
 0 0 0
 3187.18728 -2466.212422 477446.9928
 2582.793392 -2582.793376 477450.0284
 1626.539407 -2746.455096 477453.3303
 554.9687364 -2829.891539 477455.2911
 -554.9687364 -2829.891585 477455.2911
 -1626.539406 -2746.455057 477453.3303
 -2582.793393 -2582.793403 477450.0284
 -3187.18728 -2466.212411 477446.9928
 0 0 -0
 0 0 0
 3056.377413 -3056.377411 477444.4349
 2466.212415 -3187.187287 477446.9928
 1444.008946 -3526.290208 477448.7945
 491.0464557 -3639.09755 477449.8792
 -491.0464557 -3639.097522 477449.8792
 -1444.008946 -3526.29023 477448.7945
 -2466.212415 -3187.187276 477446.9928
 -3056.377413 -3056.377415 477444.4349
 0 0 -0
 0 0 0
 0 0 0
 0 0 0
 1016.602182 -4112.923577 477445.2028
 393.8210801 -4137.438881 477445.9109
 -393.8210801 -4137.43889 477445.9109
 -1016.602182 -4112.923572 477445.2028
 0 0 -0
 0 0 -0
 0 0 -0
 0 0 0
 0 0 0
 0 0 0
 781.7828063 3162.007185 477452.8896
 302.7418159 3179.846982 477453.3152
 -302.7418159 3179.84697 477453.3152
 -781.7828063 3162.007192 477452.8896
 0 0 -0
 0 0 -0
 0 0 -0
 0 0 0
 2350.794212 2350.794213 477452.4257
 1894.788399 2448.596444 477453.9616
 1108.58659 2707.244304 477455.0378
 376.7903589 2792.441747 477455.6855
 -376.790359 2792.441784 477455.6855
 -1108.58659 2707.244274 477455.0378
 -1894.788399 2448.596459 477453.9616
 -2350.794212 2350.794208 477452.4257
 0 0 -0
 0 0 0
 2448.596447 1894.788396 477453.9616