# OOMMF OVF 2.0
#
# Segment count: 1
#
# Begin: Segment
# Begin: Header
#
# Title: Oxs_MinDriver::Magnetization
# Desc: Oxs vector field output
# Desc:  MIF source file: F:/Bogdan/UNIC/2022/Master_degree/Simulation_samples/Cylinder0_5000 1.mif
# Desc:  Iteration: 1580, State id: 10770
# Desc:  Stage: 4, Stage iteration: 72
# Desc:  Stage simulation time: 0 s
# Desc:  Total simulation time: -2 s
# meshunit: m
# meshtype: rectangular
# xbase: -8.9999999999999995e-09
# ybase: -8.9999999999999995e-09
# zbase: -8.6999999999999998e-08
# xnodes: 10
# ynodes: 10
# znodes: 88
# xstepsize: 2.0000000000000001e-09
# ystepsize: 2.0000000000000001e-09
# zstepsize: 2.0000000000000001e-09
# xmin: -1e-08
# ymin: -1e-08
# zmin: -8.7999999999999994e-08
# xmax: 1e-08
# ymax: 1e-08
# zmax: 8.800000000000002e-08
# valuedim: 3
# valuelabels: Magnetization_x Magnetization_y Magnetization_z
# valueunits: A/m A/m A/m
#
# End: Header
#
# Begin: Data Text
 0 0 0
 0 0 0
 0 0 0
 8425.011489 31811.54765 476328.5798
 3174.161965 32033.69648 476377.6215
 -3174.161965 32033.69648 476377.6215
 -8425.011489 31811.54765 476328.5798
 0 0 -0
 0 0 -0
 0 0 -0
 0 0 0
 23625.65871 23625.65868 476293.5311
 18786.95024 24631.45069 476457.9871
 11118.64287 26750.75346 476584.3517
 3758.867457 27328.2301 476666.4558
 -3758.867457 27328.23011 476666.4558
 -11118.64286 26750.75345 476584.3517
 -18786.95025 24631.45069 476457.9871
 -23625.65871 23625.65868 476293.5311
 0 0 -0
 0 0 0
 24631.45072 18786.95021 476457.9871
 19397.21286 19397.21284 476675.3272
 12029.68367 20233.29293 476883.3944
 4069.178867 20604.28789 477001.8621
 -4069.178866 20604.28788 477001.8621
 -12029.68368 20233.29294 476883.3944
 -19397.21286 19397.21283 476675.3272
 -24631.45072 18786.95022 476457.9871
 0 0 -0
 31811.54768 8425.01146 476328.5798
 26750.75348 11118.64284 476584.3517
 20233.29296 12029.68364 476883.3944
 12527.11147 12527.11145 477135.2159
 4235.575065 12747.68913 477275.0021
 -4235.575066 12747.68915 477275.0021
 -12527.11147 12527.11144 477135.2159
 -20233.29297 12029.68365 476883.3944
 -26750.75348 11118.64283 476584.3517
 -31811.54768 8425.011462 476328.5798
 32033.69651 3174.16194 476377.6215
 27328.23013 3758.867422 476666.4558
 20604.28792 4069.178849 477001.862
 12747.68916 4235.575024 477275.0021
 4309.263541 4309.263524 477425.106
 -4309.26354 4309.263499 477425.106
 -12747.68917 4235.575047 477275.0021
 -20604.28791 4069.178831 477001.8621
 -27328.23013 3758.867433 476666.4558
 -32033.69651 3174.161936 476377.6215
 32033.69651 -3174.161996 476377.6215
 27328.23013 -3758.867478 476666.4558
 20604.28791 -4069.178907 477001.862
 12747.68917 -4235.57508 477275.0021
 4309.263538 -4309.263584 477425.1059
 -4309.26354 -4309.263554 477425.1059
 -12747.68916 -4235.575106 477275.0021
 -20604.28792 -4069.178887 477001.862
 -27328.23013 -3758.86749 476666.4558
 -32033.69651 -3174.161992 476377.6215
 31811.54768 -8425.011515 476328.5798
 26750.75348 -11118.6429 476584.3517
 20233.29297 -12029.68369 476883.3944
 12527.11147 -12527.11151 477135.2159
 4235.575067 -12747.68918 477275.0021
 -4235.575066 -12747.68921 477275.0021
 -12527.11147 -12527.11149 477135.2159
 -20233.29296 -12029.68371 476883.3944
 -26750.75348 -11118.64289 476584.3517
 -31811.54768 -8425.011518 476328.5798
 0 0 0
 24631.45072 -18786.95027 476457.9871
 19397.21286 -19397.21289 476675.3272
 12029.68368 -20233.29298 476883.3944
 4069.178866 -20604.28796 477001.862
 -4069.178867 -20604.28793 477001.862
 -12029.68367 -20233.293 476883.3944
 -19397.21286 -19397.21288 476675.3272
 -24631.45072 -18786.95028 476457.9871
 0 0 -0
 0 0 0
 23625.65871 -23625.65874 476293.5311
 18786.95025 -24631.45074 476457.9871
 11118.64286 -26750.75352 476584.3517
 3758.867458 -27328.23015 476666.4558
 -3758.867457 -27328.23017 476666.4558
 -11118.64287 -26750.7535 476584.3517
 -18786.95024 -24631.45075 476457.9871
 -23625.65871 -23625.65874 476293.5311
 0 0 -0
 0 0 0
 0 0 0
 0 0 0
 8425.011489 -31811.54771 476328.5798
 3174.161965 -32033.69654 476377.6215
 -3174.161965 -32033.69653 476377.6215
 -8425.011489 -31811.54771 476328.5798
 0 0 -0
 0 0 -0
 0 0 -0
 0 0 0
 0 0 0
 0 0 0
 7072.70424 27554.54445 476615.7732
 2723.716236 27760.08363 476648.5397
 -2723.716236 27760.08363 476648.5397
 -7072.70424 27554.54445 476615.7732
 0 0 -0
 0 0 -0
 0 0 -0
 0 0 0
 20428.2046 20428.20458 476589.1818
 16458.12974 21376.10271 476701.2309
 9716.568027 23513.08889 476785.6901
 3304.926751 24169.12963 476840.4365
 -3304.92675 24169.12961 476840.4366
 -9716.56803 23513.0889 476785.6901
 -16458.12974 21376.1027 476701.2309
 -20428.20461 20428.20458 476589.1818
 0 0 -0
 0 0 0
 21376.10273 16458.12972 476701.2309
 17153.70416 17153.70412 476847.3258
 10728.48919 18064.80135 477001.5029
 3644.618904 18490.98136 477091.8902
 -3644.618907 18490.9814 477091.8902
 -10728.48919 18064.80132 477001.5029
 -17153.70417 17153.70415 476847.3258
 -21376.10273 16458.12971 476701.2309
 0 0 -0
 27554.54448 7072.704216 476615.7732
 23513.08892 9716.567988 476785.6901
 18064.80137 10728.48918 477001.5029
 11286.0809 11286.08085 477197.1501
 3831.39585 11537.03786 477309.2168
 -3831.395846 11537.0378 477309.2168
 -11286.08091 11286.0809 477197.1501
 -18064.80136 10728.48915 477001.5029
 -23513.08893 9716.56801 476785.6901
 -27554.54448 7072.704211 476615.7732
 27760.08366 2723.716203 476648.5397
 24169.12965 3304.926742 476840.4365
 18490.9814 3644.618849 477091.8902
 11537.03786 3831.395855 477309.2168
 3914.801461 3914.8014 477431.9009
 -3914.801466 3914.801471 477431.9009
 -11537.03785 3831.395791 477309.2168
 -18490.98141 3644.618899 477091.8902
 -24169.12964 3304.926711 476840.4365
 -27760.08366 2723.716213 476648.5397
 27760.08366 -2723.716257 476648.5397
 24169.12964 -3304.926798 476840.4365
 18490.98141 -3644.618901 477091.8902
 11537.03785 -3831.395915 477309.2168
 3914.801469 -3914.80145 477431.9009
 -3914.801465 -3914.801533 477431.9009
 -11537.03786 -3831.395842 477309.2168
 -18490.9814 -3644.618958 477091.8902
 -24169.12965 -3304.926763 476840.4365
 -27760.08366 -2723.716268 476648.5397
 27554.54448 -7072.704271 476615.7732
 23513.08893 -9716.568039 476785.6901
 18064.80136 -10728.48925 477001.5029
 11286.08092 -11286.0809 477197.1501
 3831.395843 -11537.03793 477309.2168
 -3831.395847 -11537.03784 477309.2168
 -11286.08091 -11286.08097 477197.1501
 -18064.80137 -10728.48919 477001.5029
 -23513.08892 -9716.568069 476785.6901
 -27554.54448 -7072.704264 476615.7732
 0 0 0
 21376.10273 -16458.12978 476701.2308
 17153.70417 -17153.70417 476847.3258
 10728.48918 -18064.80142 477001.5029
 3644.618909 -18490.9814 477091.8902
 -3644.618906 -18490.98147 477091.8902
 -10728.48919 -18064.80136 477001.5029
 -17153.70416 -17153.70421 476847.3258
 -21376.10273 -16458.12976 476701.2308
 0 0 -0
 0 0 0
 20428.20461 -20428.20463 476589.1818
 16458.12974 -21376.10276 476701.2308
 9716.568031 -23513.08893 476785.6901
 3304.926748 -24169.12969 476840.4365
 -3304.92675 -24169.12965 476840.4365
 -9716.568028 -23513.08897 476785.6901
 -16458.12974 -21376.10275 476701.2308
 -20428.2046 -20428.20463 476589.1818
 0 0 -0
 0 0 0
 0 0 0
 0 0 0
 7072.704239 -27554.54451 476615.7732
 2723.716237 -27760.08368 476648.5397
 -2723.716237 -27760.08369 476648.5397
 -7072.70424 -27554.5445 476615.7732
 0 0 -0
 0 0 -0
 0 0 -0
 0 0 0
 0 0 0
 0 0 0
 5662.103378 22472.53357 476901.2446
 2193.701057 22646.30312 476921.591
 -2193.701056 22646.30311 476921.591
 -5662.103379 22472.53357 476901.2446
 0 0 -0
 0 0 -0
 0 0 -0
 0 0 0
 16654.61292 16654.6129 476882.7099
 13487.18696 17461.46097 476953.9438
 7950.391404 19316.14611 477006.8648
 2709.74282 19927.65973 477040.2677
 -2709.742822 19927.65976 477040.2677
 -7950.391399 19316.14608 477006.8648
 -13487.18696 17461.46099 476953.9438
 -16654.61292 16654.6129 476882.7099
 0 0 -0
 0 0 0
 17461.461 13487.18693 476953.9438
 14144.41346 14144.41345 477044.8013
 8902.901882 15007.02969 477145.05
 3035.171742 15430.06975 477204.958
 -3035.171738 15430.0697 477204.958
 -8902.901892 15007.02974 477145.05
 -14144.41345 14144.41342 477044.8013
 -17461.46101 13487.18694 476953.9438
 0 0 -0
 22472.53359 5662.103348 476901.2446
 19316.14612 7950.391394 477006.8648
 15007.02974 8902.901829 477145.05
 9454.288314 9454.288319 477276.7585
 3223.098029 9710.804329 477354.3581
 -3223.098034 9710.804408 477354.3581
 -9454.288301 9454.288249 477276.7585
 -15007.02975 8902.901883 477145.05
 -19316.14611 7950.391363 477006.8648
 -22472.5336 5662.103356 476901.2446
 22646.30314 2193.701039 476921.591
 19927.65977 2709.742769 477040.2677
 15430.06976 3035.171755 477204.958
 9710.804387 3223.097956 477354.3581
 3309.375309 3309.375331 477441.0617
 -3309.375303 3309.375228 477441.0617
 -9710.804403 3223.098048 477354.3581
 -15430.06974 3035.171683 477204.958
 -19927.65978 2709.742813 477040.2677
 -22646.30314 2193.701025 476921.591
 22646.30314 -2193.701091 476921.591
 19927.65978 -2709.742819 477040.2677
 15430.06974 -3035.171811 477204.958
 9710.804406 -3223.098002 477354.3581
 3309.375298 -3309.375392 477441.0617
 -3309.375304 -3309.375273 477441.0617
 -9710.804391 -3223.098108 477354.3581
 -15430.06976 -3035.17173 477204.958
 -19927.65977 -2709.742868 477040.2677
 -22646.30314 -2193.701076 476921.591
 22472.5336 -5662.103398 476901.2446
 19316.14611 -7950.391451 477006.8648
 15007.02975 -8902.901871 477145.05
 9454.288298 -9454.288388 477276.7585
 3223.098038 -9710.804362 477354.3581
 -3223.098033 -9710.804481 477354.3581
 -9454.288311 -9454.288283 477276.7585
 -15007.02974 -8902.901948 477145.0499
 -19316.14612 -7950.391408 477006.8648
 -22472.53359 -5662.103409 476901.2446
 0 0 0
 17461.46101 -13487.18698 476953.9438
 14144.41345 -14144.41351 477044.8013
 8902.901894 -15007.02973 477145.05
 3035.171735 -15430.06982 477204.958
 -3035.171739 -15430.06972 477204.958
 -8902.901884 -15007.02981 477145.0499
 -14144.41346 -14144.41345 477044.8013
 -17461.461 -13487.187 476953.9438
 0 0 -0
 0 0 0
 16654.61292 -16654.61295 476882.7099
 13487.18696 -17461.46102 476953.9438
 7950.391397 -19316.14617 477006.8648
 2709.742824 -19927.65977 477040.2677
 -2709.742822 -19927.65983 477040.2677
 -7950.391403 -19316.14612 477006.8648
 -13487.18696 -17461.46104 476953.9438
 -16654.61292 -16654.61295 476882.7099
 0 0 -0
 0 0 0
 0 0 0
 0 0 0
 5662.103379 -22472.53361 476901.2446
 2193.701056 -22646.30317 476921.591
 -2193.701056 -22646.30315 476921.591
 -5662.103378 -22472.53363 476901.2446
 0 0 -0
 0 0 -0
 0 0 -0
 0 0 0
 0 0 0
 0 0 0
 4421.343066 17735.19448 477114.0177
 1715.212743 17871.42268 477126.3371
 -1715.212743 17871.42269 477126.3371
 -4421.343065 17735.19448 477114.0177
 0 0 -0
 0 0 -0
 0 0 -0
 0 0 0
 13145.45092 13145.4509 477101.9446
 10659.39383 13786.46425 477145.8708
 6274.393217 15283.0383 477178.0926
 2139.070652 15791.53131 477197.9916
 -2139.07065 15791.53127 477197.9916
 -6274.393222 15283.03832 477178.0926
 -10659.39383 13786.46424 477145.8708
 -13145.45093 13145.4509 477101.9446
 0 0 -0
 0 0 0
 13786.46427 10659.39381 477145.8708
 11208.85909 11208.85905 477200.7903
 7077.251654 11939.16718 477262.2341
 2417.41349 12307.33841 477299.232
 -2417.413493 12307.33847 477299.232
 -7077.251645 11939.16713 477262.2341
 -11208.8591 11208.85908 477200.7903
 -13786.46427 10659.3938 477145.8708
 0 0 -0
 17735.19451 4421.343047 477114.0177
 15283.03833 6274.393174 477178.0926
 11939.16718 7077.25166 477262.2341
 7559.151704 7559.151643 477344.3094
 2584.240672 7789.302759 477393.4643
 -2584.240667 7789.302671 477393.4643
 -7559.151717 7559.151721 477344.3094
 -11939.16717 7077.2516 477262.2341
 -15283.03834 6274.393209 477178.0926
 -17735.1945 4421.343038 477114.0177
 17871.42271 1715.212709 477126.3371
 15791.53132 2139.070655 477197.9916
 12307.33846 2417.413422 477299.232
 7789.302746 2584.240699 477393.4643
 2662.787432 2662.787353 477449.1496
 -2662.787438 2662.787465 477449.1496
 -7789.302731 2584.240598 477393.4643
 -12307.33848 2417.4135 477299.232
 -15791.53131 2139.070607 477197.9916
 -17871.42271 1715.212725 477126.3371
 17871.42271 -1715.212757 477126.3371
 15791.53131 -2139.070706 477197.9916
 12307.33848 -2417.413467 477299.232
 7789.30273 -2584.240754 477393.4643
 2662.78744 -2662.787395 477449.1496
 -2662.787434 -2662.787523 477449.1496
 -7789.302745 -2584.240641 477393.4643
 -12307.33846 -2417.413555 477299.232
 -15791.53132 -2139.070653 477197.9916
 -17871.42271 -1715.212774 477126.3371
 17735.1945 -4421.343096 477114.0177
 15283.03834 -6274.393218 477178.0926
 11939.16717 -7077.251719 477262.2341
 7559.151718 -7559.151676 477344.3094
 2584.240665 -7789.302827 477393.4643
 -2584.24067 -7789.302701 477393.4643
 -7559.151704 -7559.151787 477344.3094
 -11939.16718 -7077.251637 477262.2341
 -15283.03833 -6274.393264 477178.0926
 -17735.19451 -4421.343085 477114.0177
 0 0 0
 13786.46427 -10659.39387 477145.8708
 11208.8591 -11208.85908 477200.7903
 7077.251645 -11939.16725 477262.2341
 2417.413494 -12307.33844 477299.232
 -2417.41349 -12307.33855 477299.232
 -7077.251654 -11939.16716 477262.2341
 -11208.85909 -11208.85915 477200.7903
 -13786.46427 -10659.39384 477145.8708
 0 0 -0
 0 0 0
 13145.45093 -13145.45094 477101.9446
 10659.39383 -13786.46431 477145.8708
 6274.393222 -15283.03833 477178.0926
 2139.07065 -15791.53137 477197.9916
 -2139.070652 -15791.5313 477197.9916
 -6274.393217 -15283.03839 477178.0926
 -10659.39383 -13786.46428 477145.8708
 -13145.45092 -13145.45095 477101.9446
 0 0 -0
 0 0 0
 0 0 0
 0 0 0
 4421.343065 -17735.19454 477114.0177
 1715.212743 -17871.42273 477126.3371
 -1715.212743 -17871.42275 477126.3371
 -4421.343066 -17735.19452 477114.0177
 0 0 -0
 0 0 -0
 0 0 -0
 0 0 0
 0 0 0
 0 0 0
 3400.429018 13727.29119 477254.5127
 1319.359844 13829.06425 477261.8648
 -1319.359844 13829.06424 477261.8648
 -3400.429018 13727.29119 477254.5127
 0 0 -0
 0 0 -0
 0 0 -0
 0 0 0
 10177.6369 10177.63688 477247.0039
 8250.666347 10666.9232 477273.5217
 4849.228612 11831.53009 477292.7521
 1652.567439 12230.59515 477304.4656
 -1652.567441 12230.59518 477304.4656
 -4849.228608 11831.53007 477292.7521
 -8250.66635 10666.92321 477273.5217
 -10177.63689 10177.63687 477247.0039
 0 0 -0
 0 0 0
 10666.92323 8250.666317 477273.5217
 8680.663676 8680.663671 477306.1527
 5485.997905 9259.937229 477342.6743
 1875.160744 9555.914163 477364.6819
 -1875.160741 9555.91411 477364.682
 -5485.997912 9259.937276 477342.6743
 -8680.663669 8680.663638 477306.1528
 -10666.92323 8250.666331 477273.5217
 0 0 -0
 13727.29121 3400.42899 477254.5127
 11831.5301 4849.228607 477292.7521
 9259.937276 5485.997853 477342.6743
 5875.348276 5875.34829 477391.6965
 2011.301998 6064.113707 477421.2527
 -2011.302002 6064.113783 477421.2527
 -5875.348267 5875.348222 477391.6965
 -9259.937286 5485.997904 477342.6743
 -11831.53009 4849.228577 477292.7521
 -13727.29122 3400.428998 477254.5127
 13829.06427 1319.35983 477261.8648
 12230.59518 1652.567391 477304.4656
 9555.914161 1875.160761 477364.6819
 6064.113768 2011.301926 477421.2527
 2076.411549 2076.411577 477454.9699
 -2076.411545 2076.411482 477454.9699
 -6064.113779 2011.302011 477421.2527
 -9555.914149 1875.160695 477364.6819
 -12230.59519 1652.567431 477304.4656
 -13829.06427 1319.359817 477261.8648
 13829.06427 -1319.359876 477261.8648
 12230.59519 -1652.567435 477304.4656
 9555.914156 -1875.16081 477364.6819
 6064.11377 -2011.301968 477421.2527
 2076.411553 -2076.411628 477454.9699
 -2076.411558 -2076.411523 477454.9699
 -6064.11376 -2011.302061 477421.2527
 -9555.914168 -1875.160738 477364.6819
 -12230.59518 -1652.567478 477304.4656
 -13829.06427 -1319.359862 477261.8648
 13727.29121 -3400.429035 477254.5127
 11831.5301 -4849.228656 477292.7521
 9259.93728 -5485.997891 477342.6743
 5875.348274 -5875.348346 477391.6965
 2011.301994 -6064.11374 477421.2527
 -2011.30199 -6064.113842 477421.2527
 -5875.348284 -5875.348257 477391.6965
 -9259.93727 -5485.997958 477342.6743
 -11831.53011 -4849.228619 477292.7521
 -13727.29121 -3400.429044 477254.5127
 0 0 0
 10666.92323 -8250.666359 477273.5217
 8680.663673 -8680.663724 477306.1527
 5485.997906 -9259.937263 477342.6743
 1875.160748 -9555.914224 477364.6819
 -1875.160751 -9555.91414 477364.6819
 -5485.997899 -9259.937334 477342.6743
 -8680.663681 -8680.663676 477306.1527
 -10666.92323 -8250.666379 477273.5217
 0 0 -0
 0 0 0
 10177.6369 -10177.63692 477247.0039
 8250.666349 -10666.92324 477273.5217
 4849.228612 -11831.53014 477292.7521
 1652.567437 -12230.59518 477304.4656
 -1652.567435 -12230.59524 477304.4656
 -4849.228616 -11831.5301 477292.7521
 -8250.666346 -10666.92326 477273.5217
 -10177.6369 -10177.63692 477247.0039
 0 0 -0
 0 0 0
 0 0 0
 0 0 0
 3400.429018 -13727.29123 477254.5127
 1319.359845 -13829.0643 477261.8648
 -1319.359846 -13829.06428 477261.8648
 -3400.429017 -13727.29124 477254.5127
 0 0 -0
 0 0 -0
 0 0 -0
 0 0 0
 0 0 0
 0 0 0
 2592.843129 10508.74563 477341.2979
 1005.863015 10582.81486 477345.6437
 -1005.863015 10582.81487 477345.6437
 -2592.843129 10508.74562 477341.2979
 0 0 -0
 0 0 -0
 0 0 -0
 0 0 0
 7793.961572 7793.961549 477336.757
 6312.668558 8159.644209 477352.534
 3704.716429 9049.368415 477363.8605
 1261.74942 9353.609727 477370.7042
 -1261.749419 9353.609708 477370.7042
 -3704.71643 9049.368431 477363.8605
 -6312.668557 8159.644201 477352.534
 -7793.961573 7793.961552 477336.757
 0 0 -0
 0 0 0
 8159.644223 6312.668545 477352.534
 6637.856565 6637.856527 477371.7095
 4193.719708 7081.481895 477393.063
 1433.355501 7309.273326 477405.8979
 -1433.355502 7309.273358 477405.8979
 -4193.719705 7081.481867 477393.063
 -6637.856567 6637.856546 477371.7095
 -8159.644222 6312.668537 477352.534
 0 0 -0
 10508.74564 2592.843113 477341.2979
 9049.368449 3704.716392 477363.8605
 7081.481892 4193.719713 477393.063
 4494.589304 4494.589251 477421.6885
 1539.123467 4641.394203 477438.9593
 -1539.123466 4641.39416 477438.9593
 -4494.589307 4494.589289 477421.6885
 -7081.481889 4193.719684 477393.063
 -9049.368451 3704.716408 477363.8605
 -10508.74564 2592.843109 477341.2979
 10582.81489 1005.862987 477345.6437
 9353.609733 1261.74942 477370.7042
 7309.273372 1433.355448 477405.8979
 4641.39419 1539.123484 477438.9593
 1590.071489 1590.071428 477458.7046
 -1590.071491 1590.071477 477458.7046
 -4641.394187 1539.12344 477438.9593
 -7309.273376 1433.355482 477405.8979
 -9353.609731 1261.749399 477370.7042
 -10582.81489 1005.862994 477345.6437
 10582.81488 -1005.863029 477345.6437
 9353.609744 -1261.749462 477370.7042
 7309.273355 -1433.355489 477405.8979
 4641.394213 -1539.123528 477438.9593
 1590.071461 -1590.071469 477458.7046
 -1590.071459 -1590.07152 477458.7046
 -4641.394217 -1539.123482 477438.9593
 -7309.273352 -1433.355524 477405.8979
 -9353.609746 -1261.749441 477370.7042
 -10582.81488 -1005.863036 477345.6437
 10508.74565 -2592.843155 477341.2979
 9049.368441 -3704.716434 477363.8605
 7081.481907 -4193.719756 477393.063
 4494.589284 -4494.589291 477421.6885
 1539.123492 -4641.394247 477438.9593
 -1539.123494 -4641.394201 477438.9593
 -4494.58928 -4494.589332 477421.6885
 -7081.481911 -4193.719726 477393.063
 -9049.368439 -3704.716451 477363.8605
 -10508.74565 -2592.84315 477341.2979
 0 0 0
 8159.644228 -6312.668587 477352.534
 6637.856556 -6637.856568 477371.7095
 4193.719723 -7081.481939 477393.063
 1433.355481 -7309.273366 477405.8979
 -1433.35548 -7309.273403 477405.8979
 -4193.719726 -7081.481908 477393.063
 -6637.856552 -6637.856589 477371.7095
 -8159.644229 -6312.668579 477352.534
 0 0 -0
 0 0 0
 7793.961572 -7793.961591 477336.757
 6312.668563 -8159.644252 477352.534
 3704.71642 -9049.368456 477363.8605
 1261.749432 -9353.609771 477370.7042
 -1261.749433 -9353.609748 477370.7042
 -3704.716418 -9049.368474 477363.8605
 -6312.668564 -8159.644243 477352.534
 -7793.961571 -7793.961594 477336.757
 0 0 -0
 0 0 0
 0 0 0
 0 0 0
 2592.843132 -10508.74567 477341.2979
 1005.863011 -10582.8149 477345.6437
 -1005.863011 -10582.81491 477345.6437
 -2592.843132 -10508.74566 477341.2979
 0 0 -0
 0 0 -0
 0 0 -0
 0 0 0
 0 0 0
 0 0 0
 1970.262295 8004.91645 477392.8264
 764.1412882 8058.226092 477395.3837
 -764.1412883 8058.226092 477395.3837
 -1970.262295 8004.91645 477392.8264
 0 0 -0
 0 0 -0
 0 0 -0
 0 0 0
 5939.08997 5939.089953 477390.119
 4804.985316 6209.952724 477399.4343
 2816.106481 6884.074022 477406.0644
 958.4587543 7112.992223 477410.0523
 -958.4587541 7112.992223 477410.0523
 -2816.106481 6884.074022 477406.0644
 -4804.985315 6209.952724 477399.4343
 -5939.08997 5939.089953 477390.119
 0 0 -0
 0 0 0
 6209.952749 4804.985291 477399.4343
 5047.048288 5047.048282 477410.647
 3185.821665 5381.072966 477423.0471
 1088.375705 5552.621368 477430.4715
 -1088.375706 5552.62137 477430.4715
 -3185.821663 5381.072964 477423.0471
 -5047.04829 5047.048285 477410.647
 -6209.952748 4804.98529 477399.4343
 0 0 -0
 8004.916472 1970.262273 477392.8264
 6884.07403 2816.106472 477406.0644
 5381.073005 3185.821628 477423.0471
 3413.079947 3413.07995 477439.6015
 1168.449788 3524.072034 477449.5648
 -1168.449787 3524.072024 477449.5648
 -3413.07995 3413.079959 477439.6015
 -5381.073001 3185.821621 477423.0471
 -6884.074033 2816.106476 477406.0644
 -8004.916471 1970.262272 477392.8264
 8058.226107 764.141273 477395.3837
 7112.992257 958.4587227 477410.0523
 5552.621366 1088.375704 477430.4715
 3524.072077 1168.449746 477449.5648
 1207.077426 1207.077428 477460.9484
 -1207.077427 1207.077446 477460.9484
 -3524.072073 1168.44973 477449.5648
 -5552.621371 1088.375717 477430.4715
 -7112.992252 958.4587147 477410.0523
 -8058.226108 764.1412756 477395.3837
 8058.226116 -764.1413114 477395.3837
 7112.992229 -958.4587627 477410.0523
 5552.621409 -1088.375741 477430.4715
 3524.072023 -1168.449788 477449.5648
 1207.077485 -1207.077464 477460.9484
 -1207.077483 -1207.07749 477460.9484
 -3524.072026 -1168.449765 477449.5648
 -5552.621404 -1088.375759 477430.4715
 -7112.992233 -958.458752 477410.0523
 -8058.226114 -764.1413147 477395.3837
 8004.916467 -1970.262312 477392.8264
 6884.074051 -2816.106508 477406.0644
 5381.072968 -3185.821672 477423.0471
 3413.079994 -3413.079981 477439.6015
 1168.449736 -3524.072083 477449.5648
 -1168.449737 -3524.072053 477449.5648
 -3413.079992 -3413.080007 477439.6015
 -5381.072972 -3185.821653 477423.0471
 -6884.074049 -2816.106519 477406.0644
 -8004.916468 -1970.262309 477392.8264
 0 0 0
 6209.952739 -4804.985332 477399.4343
 5047.048313 -5047.048315 477410.647
 3185.821631 -5381.073015 477423.0471
 1088.375745 -5552.621395 477430.4715
 -1088.375744 -5552.621422 477430.4715
 -3185.821631 -5381.072992 477423.0471
 -5047.048311 -5047.04833 477410.647
 -6209.95274 -4804.985326 477399.4343
 0 0 -0
 0 0 0
 5939.089974 -5939.089991 477390.119
 4804.985307 -6209.952766 477399.4343
 2816.1065 -6884.074054 477406.0644
 958.4587306 -7112.992271 477410.0523
 -958.4587305 -7112.992253 477410.0523
 -2816.1065 -6884.074068 477406.0644
 -4804.985307 -6209.952759 477399.4343
 -5939.089974 -5939.089993 477390.119
 0 0 -0
 0 0 0
 0 0 0
 0 0 0
 1970.26229 -8004.916491 477392.8264
 764.1412959 -8058.226128 477395.3837
 -764.1412959 -8058.226134 477395.3837
 -1970.26229 -8004.916487 477392.8264
 0 0 -0
 0 0 -0
 0 0 -0
 0 0 0
 0 0 0
 0 0 0
 1498.338331 6095.798758 477422.7346
 580.9328051 6134.125292 477424.2414
 -580.9328049 6134.125285 477424.2414
 -1498.338331 6095.798763 477422.7346
 0 0 -0
 0 0 -0
 0 0 -0
 0 0 0
 4524.351442 4524.351423 477421.1262
 3656.202193 4724.784901 477426.6225
 2140.345402 5234.691971 477430.5062
 727.9929381 5406.308587 477432.8363
 -727.9929389 5406.308611 477432.8363
 -2140.3454 5234.691952 477430.5062
 -3656.202194 4724.784912 477426.6225
 -4524.351441 4524.351419 477421.1262
 0 0 -0
 0 0 0
 4724.784916 3656.202177 477426.6225
 3835.557477 3835.557453 477433.1873
 2418.389284 4085.616843 477440.3946
 825.6857059 4213.748049 477444.6919
 -825.6857042 4213.748003 477444.6919
 -2418.389288 4085.616883 477440.3946
 -3835.557472 3835.557425 477433.1873
 -4724.784918 3656.20219 477426.6225
 0 0 -0
 6095.798774 1498.338314 477422.7346
 5234.691996 2140.345381 477430.5062
 4085.616851 2418.389271 477440.3946
 2588.491915 2588.491891 477449.9667
 885.6474534 2671.391026 477455.7054
 -885.6474561 2671.391096 477455.7054
 -2588.491908 2588.491828 477449.9667
 -4085.61686 2418.389319 477440.3946
 -5234.69199 2140.345353 477430.5062
 -6095.798776 1498.338321 477422.7346
 6134.125314 580.9327872 477424.2414
 5406.308595 727.9929209 477432.8363
 4213.748078 825.6856877 477444.6919
 2671.391037 885.6474348 477455.7054
 914.518131 914.5181158 477462.2484
 -914.5181277 914.5180212 477462.2484
 -2671.391046 885.6475192 477455.7054
 -4213.748067 825.6856223 477444.6919
 -5406.308604 727.9929612 477432.8363
 -6134.12531 580.9327743 477424.2414
 6134.1253 -580.9328234 477424.2414
 5406.308638 -727.9929541 477432.8363
 4213.748011 -825.685728 477444.6919
 2671.391119 -885.6474641 477455.7054
 914.5180444 -914.5181595 477462.2484
 -914.5180476 -914.5180491 477462.2484
 -2671.391111 -885.6475622 477455.7054
 -4213.748022 -825.6856529 477444.6919
 -5406.308629 -727.9929996 477432.8363
 -6134.125303 -580.932809 477424.2414
 6095.798783 -1498.338348 477422.7346
 5234.691964 -2140.345422 477430.5062
 4085.616907 -2418.389295 477440.3946
 2588.491844 -2588.491943 477449.9667
 885.6475297 -2671.391042 477455.7054
 -885.6475272 -2671.391153 477455.7054
 -2588.491851 -2588.491846 477449.9667
 -4085.616899 -2418.389367 477440.3946
 -5234.69197 -2140.345382 477430.5062
 -6095.798781 -1498.338358 477422.7346
 0 0 0
 4724.784932 -3656.202209 477426.6225
 3835.55744 -3835.557501 477433.1873
 2418.389335 -4085.616859 477440.3946
 825.6856484 -4213.748109 477444.6919
 -825.6856499 -4213.748015 477444.6919
 -2418.389331 -4085.616939 477440.3946
 -3835.557445 -3835.557447 477433.1873
 -4724.784929 -3656.20223 477426.6225
 0 0 -0
 0 0 0
 4524.351437 -4524.351461 477421.1262
 3656.202208 -4724.784931 477426.6225
 2140.345373 -5234.692021 477430.5062
 727.9929726 -5406.308604 477432.8363
 -727.9929719 -5406.308665 477432.8363
 -2140.345375 -5234.691973 477430.5062
 -3656.202206 -4724.784954 477426.6225
 -4524.351438 -4524.351453 477421.1262
 0 0 -0
 0 0 0
 0 0 0
 0 0 0
 1498.338338 -6095.798791 477422.7346
 580.9327944 -6134.125335 477424.2414
 -580.9327946 -6134.125315 477424.2414
 -1498.338338 -6095.798803 477422.7346
 0 0 -0
 0 0 -0
 0 0 -0
 0 0 0
 0 0 0
 0 0 0
 1144.296894 4657.905488 477439.908
 443.5186413 4685.618504 477440.8022
 -443.5186415 4685.618519 477440.8022
 -1144.296893 4657.905479 477439.908
 0 0 -0
 0 0 -0
 0 0 -0
 0 0 0
 3458.47384 3458.473823 477438.9482
 2791.77695 3607.460496 477442.2096
 1632.759367 3994.307628 477444.5003
 555.0278735 4123.291771 477445.8731
 -555.0278725 4123.291722 477445.8731
 -1632.75937 3994.307668 477444.5003
 -2791.776948 3607.460476 477442.2096
 -3458.473841 3458.473831 477438.9482
 0 0 -0
 0 0 0
 3607.460512 2791.776936 477442.2096
 2925.011788 2925.011767 477446.0806
 1842.150636 3112.488957 477450.3013
 628.5336748 3208.220157 477452.8077
 -628.5336768 3208.220246 477452.8077
 -1842.15063 3112.488881 477450.3013
 -2925.011793 2925.01182 477446.0806
 -3607.460509 2791.776913 477442.2096
 0 0 -0
 4657.905505 1144.29688 477439.908
 3994.307645 1632.759343 477444.5003
 3112.488969 1842.150631 477450.3013
 1969.429516 1969.429485 477455.8765
 673.3728103 2031.229898 477459.2045
 -673.3728072 2031.229769 477459.2045
 -1969.429524 1969.4296 477455.8765
 -3112.488959 1842.150544 477450.3013
 -3994.307652 1632.759394 477444.5003
 -4657.905503 1144.296867 477439.908
 4685.61852 443.5186208 477440.8022
 4123.291787 555.0278702 477445.8731
 3208.220179 628.5336375 477452.8077
 2031.229898 673.3728207 477459.2045
 694.8827312 694.8826843 477462.9887
 -694.882735 694.8828486 477462.9887
 -2031.229888 673.3726744 477459.2045
 -3208.220191 628.5337504 477452.8077
 -4123.291778 555.0278011 477445.8731
 -4685.618524 443.5186429 477440.8022
 4685.618536 -443.5186526 477440.8022
 4123.291738 -555.027906 477445.8731
 3208.220257 -628.5336645 477452.8077
 2031.229802 -673.3728618 477459.2045
 694.8828336 -694.8827076 477462.9887
 -694.8828299 -694.8828914 477462.9887
 -2031.229812 -673.3726988 477459.2045
 -3208.220244 -628.5337894 477452.8077
 -4123.291748 -555.0278304 477445.8731
 -4685.618533 -443.5186764 477440.8022
 4657.905496 -1144.296914 477439.908
 3994.307684 -1632.759369 477444.5003
 3112.488903 -1842.150678 477450.3013
 1969.4296 -1969.429497 477455.8765
 673.3727205 -2031.229956 477459.2045
 -673.3727236 -2031.229776 477459.2045
 -1969.429592 -1969.429654 477455.8765
 -3112.488913 -1842.150562 477450.3013
 -3994.307677 -1632.759434 477444.5003
 -4657.905498 -1144.296898 477439.908
 0 0 0
 3607.460493 -2791.776974 477442.2096
 2925.011831 -2925.011785 477446.0806
 1842.150575 -3112.489014 477450.3013
 628.5337423 -3208.22016 477452.8077
 -628.5337403 -3208.220308 477452.8077
 -1842.15058 -3112.488889 477450.3013
 -2925.011826 -2925.011869 477446.0806
 -3607.460497 -2791.77694 477442.2096
 0 0 -0
 0 0 0
 3458.473847 -3458.473854 477438.9482
 2791.776933 -3607.460537 477442.2096
 1632.759401 -3994.307644 477444.5003
 555.0278334 -4123.291826 477445.8731
 -555.0278344 -4123.291732 477445.8731
 -1632.759399 -3994.307719 477444.5003
 -2791.776935 -3607.4605 477442.2096
 -3458.473846 -3458.473866 477438.9482
 0 0 -0
 0 0 0
 0 0 0
 0 0 0
 1144.296886 -4657.905526 477439.908
 443.5186539 -4685.618529 477440.8022
 -443.5186537 -4685.61856 477440.8022
 -1144.296887 -4657.905508 477439.908
 0 0 -0
 0 0 -0
 0 0 -0
 0 0 0
 0 0 0
 0 0 0
 880.080279 3582.01134 477449.7523
 340.9961456 3602.259408 477450.2893
 -340.9961455 3602.259386 477450.2893
 -880.0802793 3582.011354 477449.7523
 0 0 -0
 0 0 -0
 0 0 -0
 0 0 0
 2660.682407 2660.682394 477449.173
 2145.597755 2772.355791 477451.1302
 1253.913596 3067.733914 477452.4982
 426.0373822 3165.330246 477453.3176
 -426.0373828 3165.330317 477453.3176
 -1253.913595 3067.733857 477452.4982
 -2145.597756 2772.35582 477451.1302
 -2660.682406 2660.682384 477449.173
 0 0 -0
 0 0 0
 2772.355812 2145.597732 477451.1302