# OOMMF OVF 2.0
#
# Segment count: 1
#
# Begin: Segment
# Begin: Header
#
# Title: Oxs_MinDriver::Magnetization
# Desc: Oxs vector field output
# Desc:  MIF source file: F:/Bogdan/UNIC/2022/Master_degree/Simulation_samples/Cylinder0_5000 1.mif
# Desc:  Iteration: 1651, State id: 10916
# Desc:  Stage: 5, Stage iteration: 70
# Desc:  Stage simulation time: 0 s
# Desc:  Total simulation time: -2 s
# meshunit: m
# meshtype: rectangular
# xbase: -8.9999999999999995e-09
# ybase: -8.9999999999999995e-09
# zbase: -8.6999999999999998e-08
# xnodes: 10
# ynodes: 10
# znodes: 88
# xstepsize: 2.0000000000000001e-09
# ystepsize: 2.0000000000000001e-09
# zstepsize: 2.0000000000000001e-09
# xmin: -1e-08
# ymin: -1e-08
# zmin: -8.7999999999999994e-08
# xmax: 1e-08
# ymax: 1e-08
# zmax: 8.800000000000002e-08
# valuedim: 3
# valuelabels: Magnetization_x Magnetization_y Magnetization_z
# valueunits: A/m A/m A/m
#
# End: Header
#
# Begin: Data Text
 0 0 0
 0 0 0
 0 0 0
 8098.541544 30449.17055 476423.2708
 3047.088284 30659.33836 476468.8778
 -3047.088284 30659.33836 476468.8778
 -8098.541544 30449.17055 476423.2708
 0 0 -0
 0 0 -0
 0 0 -0
 0 0 0
 22622.14618 22622.14617 476390.9616
 17969.77885 23574.56472 476542.9658
 10640.26616 25572.27997 476659.9569
 3596.091155 26107.31101 476736.1406
 -3596.091155 26107.31101 476736.1406
 -10640.26616 25572.27997 476659.9569
 -17969.77885 23574.56472 476542.9658
 -22622.14618 22622.14617 476390.9616
 0 0 -0
 0 0 0
 23574.56472 17969.77885 476542.9658
 18533.53568 18533.53568 476744.0481
 11483.28844 19307.79333 476935.2309
 3882.373863 19647.05917 477043.8046
 -3882.373864 19647.05917 477043.8046
 -11483.28844 19307.79333 476935.2309
 -18533.53568 18533.53569 476744.0481
 -23574.56472 17969.77885 476542.9658
 0 0 -0
 30449.17056 8098.54154 476423.2708
 25572.27997 10640.26616 476659.9569
 19307.79334 11483.28843 476935.2309
 11938.73357 11938.73358 477165.3849
 4033.972694 12138.83631 477292.622
 -4033.972694 12138.8363 477292.622
 -11938.73357 11938.73358 477165.3849
 -19307.79334 11483.28842 476935.2309
 -25572.27997 10640.26616 476659.9569
 -30449.17055 8098.541539 476423.2708
 30659.33836 3047.088283 476468.8778
 26107.31102 3596.091146 476736.1406
 19647.05916 3882.373869 477043.8046
 12138.83632 4033.97268 477292.622
 4100.540849 4100.540858 477428.7826
 -4100.54085 4100.540864 477428.7826
 -12138.83632 4033.972675 477292.622
 -19647.05916 3882.373873 477043.8046
 -26107.31102 3596.091144 476736.1406
 -30659.33836 3047.088283 476468.8778
 30659.33837 -3047.088289 476468.8778
 26107.31101 -3596.091152 476736.1406
 19647.05918 -3882.373875 477043.8046
 12138.8363 -4033.972686 477292.622
 4100.540878 -4100.540864 477428.7826
 -4100.540878 -4100.54087 477428.7826
 -12138.8363 -4033.972681 477292.622
 -19647.05918 -3882.37388 477043.8046
 -26107.31101 -3596.09115 476736.1406
 -30659.33837 -3047.088289 476468.8778
 30449.17055 -8098.541546 476423.2708
 25572.27998 -10640.26617 476659.9569
 19307.79332 -11483.28843 476935.2309
 11938.73359 -11938.73358 477165.3849
 4033.972668 -12138.83632 477292.622
 -4033.972669 -12138.83631 477292.622
 -11938.73359 -11938.73359 477165.3849
 -19307.79332 -11483.28843 476935.2309
 -25572.27998 -10640.26617 476659.9569
 -30449.17055 -8098.541545 476423.2708
 0 0 0
 23574.56472 -17969.77885 476542.9658
 18533.53569 -18533.53569 476744.0481
 11483.28842 -19307.79333 476935.2309
 3882.373883 -19647.05917 477043.8046
 -3882.373883 -19647.05918 477043.8046
 -11483.28842 -19307.79333 476935.2309
 -18533.53569 -18533.53569 476744.0481
 -23574.56472 -17969.77885 476542.9658
 0 0 -0
 0 0 0
 22622.14618 -22622.14618 476390.9616
 17969.77885 -23574.56472 476542.9658
 10640.26617 -25572.27997 476659.9569
 3596.091143 -26107.31102 476736.1406
 -3596.091143 -26107.31102 476736.1406
 -10640.26617 -25572.27998 476659.9569
 -17969.77885 -23574.56472 476542.9658
 -22622.14618 -22622.14618 476390.9616
 0 0 -0
 0 0 0
 0 0 0
 0 0 0
 8098.541541 -30449.17056 476423.2708
 3047.088288 -30659.33837 476468.8778
 -3047.088287 -30659.33837 476468.8778
 -8098.541542 -30449.17056 476423.2708
 0 0 -0
 0 0 -0
 0 0 -0
 0 0 0
 0 0 0
 0 0 0
 6771.84887 26293.98597 476691.3463
 2606.53282 26489.38738 476721.5011
 -2606.53282 26489.38738 476721.5011
 -6771.848871 26293.98597 476691.3463
 0 0 -0
 0 0 -0
 0 0 -0
 0 0 0
 19499.27402 19499.27401 476666.999
 15702.06492 20399.15482 476769.5365
 9274.652172 22423.40103 476846.9809
 3154.561965 23040.01849 476897.3449
 -3154.561965 23040.01849 476897.3449
 -9274.652171 22423.40102 476846.9809
 -15702.06493 20399.15482 476769.5365
 -19499.27402 19499.27401 476666.999
 0 0 -0
 0 0 0
 20399.15481 15702.06493 476769.5365
 16354.90185 16354.90183 476903.4553
 10222.92073 17208.23014 477044.2747
 3471.709819 17604.60014 477126.7091
 -3471.709818 17604.60014 477126.7091
 -10222.92073 17208.23014 477044.2747
 -16354.90185 16354.90182 476903.4553
 -20399.15482 15702.06493 476769.5365
 0 0 -0
 26293.98597 6771.848871 476691.3463
 22423.40104 9274.652154 476846.9809
 17208.23011 10222.92075 477044.2747
 10740.99228 10740.99225 477222.3103
 3644.523057 10972.61165 477323.9891
 -3644.523058 10972.61166 477323.9891
 -10740.99228 10740.99224 477222.3103
 -17208.23012 10222.92076 477044.2747
 -22423.40104 9274.652151 476846.9809
 -26293.98597 6771.848872 476691.3463
 26489.38739 2606.532811 476721.5011
 23040.01848 3154.561979 476897.3449
 17604.60017 3471.709788 477126.7091
 10972.61162 3644.523089 477323.9891
 3721.191313 3721.191273 477434.9974
 -3721.191312 3721.191261 477434.9974
 -10972.61162 3644.5231 477323.9891
 -17604.60017 3471.70978 477126.7091
 -23040.01848 3154.561984 476897.3449
 -26489.38739 2606.53281 476721.5011
 26489.38738 -2606.532818 476721.5011
 23040.01851 -3154.561985 476897.3449
 17604.60011 -3471.709795 477126.7091
 10972.6117 -3644.523094 477323.9891
 3721.191229 -3721.19128 477434.9974
 -3721.19123 -3721.191266 477434.9974
 -10972.61169 -3644.523106 477323.9891
 -17604.60012 -3471.709785 477126.7091
 -23040.01851 -3154.56199 476897.3449
 -26489.38738 -2606.532816 476721.5011
 26293.98598 -6771.848877 476691.3463
 22423.40102 -9274.652161 476846.9809
 17208.23017 -10222.92076 477044.2747
 10740.99222 -10740.99226 477222.3103
 3644.523132 -10972.61165 477323.9891
 -3644.523131 -10972.61167 477323.9891
 -10740.99222 -10740.99225 477222.3103
 -17208.23016 -10222.92077 477044.2747
 -22423.40102 -9274.652156 476846.9809
 -26293.98598 -6771.848878 476691.3463
 0 0 0
 20399.15483 -15702.06493 476769.5365
 16354.90181 -16354.90184 476903.4553
 10222.92078 -17208.23014 477044.2747
 3471.709761 -17604.60015 477126.7091
 -3471.709762 -17604.60014 477126.7091
 -10222.92078 -17208.23015 477044.2747
 -16354.90182 -16354.90183 476903.4553
 -20399.15483 -15702.06494 476769.5365
 0 0 -0
 0 0 0
 19499.27401 -19499.27402 476666.999
 15702.06494 -20399.15482 476769.5365
 9274.652143 -22423.40104 476846.9809
 3154.561999 -23040.0185 476897.3449
 -3154.561999 -23040.0185 476897.3449
 -9274.652144 -22423.40103 476846.9809
 -15702.06494 -20399.15483 476769.5365
 -19499.27401 -19499.27402 476666.999
 0 0 -0
 0 0 0
 0 0 0
 0 0 0
 6771.848877 -26293.98598 476691.3463
 2606.532809 -26489.38739 476721.5011
 -2606.532809 -26489.38739 476721.5011
 -6771.848877 -26293.98598 476691.3463
 0 0 -0
 0 0 -0
 0 0 -0
 0 0 0
 0 0 0
 0 0 0
 5399.561855 21367.75497 476955.0661
 2091.438137 21533.28423 476973.5997
 -2091.438137 21533.28423 476973.5997
 -5399.561855 21367.75497 476955.0661
 0 0 -0
 0 0 -0
 0 0 -0
 0 0 0
 15840.1151 15840.1151 476938.2065
 12824.88388 16606.05812 477002.7594
 7563.936442 18362.16692 477050.8243
 2578.322914 18939.28654 477081.2582
 -2578.322914 18939.28654 477081.2582
 -7563.936444 18362.16692 477050.8243
 -12824.88388 16606.05812 477002.7594
 -15840.1151 15840.1151 476938.2065
 0 0 -0
 0 0 0
 16606.05813 12824.88386 477002.7594
 13445.17616 13445.17618 477085.2395
 8460.439519 14257.11268 477176.0964
 2883.843287 14653.87261 477230.3624
 -2883.843289 14653.87261 477230.3624
 -8460.439516 14257.11268 477176.0964
 -13445.17616 13445.17618 477085.2395
 -16606.05813 12824.88386 477002.7594
 0 0 -0
 21367.75498 5399.561846 476955.0661
 18362.1669 7563.936463 477050.8243
 14257.11272 8460.439474 477176.0964
 8976.859221 8976.859273 477295.1951
 3059.364952 9216.190462 477365.2411
 -3059.36495 9216.19046 477365.2411
 -8976.859226 8976.859275 477295.1951
 -14257.11272 8460.439473 477176.0964
 -18362.1669 7563.936464 477050.8243
 -21367.75498 5399.561846 476955.0661
 21533.28422 2091.438143 476973.5997
 18939.28657 2578.322882 477081.2582
 14653.87256 2883.843331 477230.3624
 9216.190524 3059.36489 477365.2411
 3139.631943 3139.632004 477443.3545
 -3139.631945 3139.63201 477443.3545
 -9216.19052 3059.364886 477365.2411
 -14653.87257 2883.843335 477230.3624
 -18939.28657 2578.322881 477081.2582
 -21533.28422 2091.438144 476973.5997
 21533.28424 -2091.438149 476973.5997
 18939.28651 -2578.322889 477081.2583
 14653.87266 -2883.843336 477230.3624
 9216.190406 -3059.364897 477365.2411
 3139.632073 -3139.632009 477443.3545
 -3139.632072 -3139.632016 477443.3545
 -9216.190411 -3059.36489 477365.2411
 -14653.87265 -2883.843341 477230.3624
 -18939.28652 -2578.322886 477081.2582
 -21533.28424 -2091.43815 476973.5997
 21367.75497 -5399.561852 476955.0661
 18362.16694 -7563.936468 477050.8243
 14257.11264 -8460.439482 477176.0964
 8976.859325 -8976.859276 477295.1951
 3059.364837 -9216.190471 477365.2411
 -3059.364838 -9216.190462 477365.2411
 -8976.859321 -8976.859283 477295.1951
 -14257.11265 -8460.439477 477176.0964
 -18362.16694 -7563.936471 477050.8243
 -21367.75497 -5399.561851 476955.0661
 0 0 0
 16606.05811 -12824.88387 477002.7594
 13445.17621 -13445.17619 477085.2395
 8460.439442 -14257.11268 477176.0964
 2883.843376 -14653.87261 477230.3624
 -2883.843374 -14653.87262 477230.3624
 -8460.439444 -14257.11268 477176.0964
 -13445.17621 -13445.17619 477085.2395
 -16606.05811 -12824.88387 477002.7594
 0 0 -0
 0 0 0
 15840.11511 -15840.11511 476938.2065
 12824.88385 -16606.05812 477002.7594
 7563.936486 -18362.16692 477050.8243
 2578.322861 -18939.28655 477081.2582
 -2578.322862 -18939.28654 477081.2582
 -7563.936484 -18362.16693 477050.8243
 -12824.88386 -16606.05812 477002.7594
 -15840.11511 -15840.11511 476938.2065
 0 0 -0
 0 0 0
 0 0 0
 0 0 0
 5399.561844 -21367.75498 476955.0661
 2091.438154 -21533.28423 476973.5997
 -2091.438154 -21533.28423 476973.5997
 -5399.561845 -21367.75498 476955.0661
 0 0 -0
 0 0 -0
 0 0 -0
 0 0 0
 0 0 0
 0 0 0
 4201.06683 16804.83306 477149.6829
 1629.42816 16934.50828 477160.8101
 -1629.428159 16934.50829 477160.8101
 -4201.066831 16804.83306 477149.6829
 0 0 -0
 0 0 -0
 0 0 -0
 0 0 0
 12459.33079 12459.33078 477138.7654
 10102.01452 13066.71838 477178.2492
 5949.659943 14480.57286 477207.2777
 2028.714675 14960.32775 477225.2552
 -2028.714676 14960.32774 477225.2552
 -5949.659942 14480.57286 477207.2777
 -10102.01452 13066.71838 477178.2492
 -12459.33079 12459.33078 477138.7654
 0 0 -0
 0 0 0
 13066.71837 10102.01453 477178.2492
 10620.87608 10620.87604 477227.687
 6705.417009 11308.72756 477282.9573
 2290.275364 11654.83448 477316.2377
 -2290.275362 11654.83449 477316.2377
 -6705.417012 11308.72755 477282.9573
 -10620.87608 10620.87605 477227.687
 -13066.71837 10102.01453 477178.2492
 0 0 -0
 16804.83306 4201.066836 477149.6829
 14480.57289 5949.659908 477207.2777
 11308.72751 6705.417064 477282.9573
 7157.858836 7157.858758 477356.6815
 2446.618673 7373.496603 477400.7927
 -2446.618674 7373.496583 477400.7927
 -7157.858832 7157.858775 477356.6815
 -11308.72751 6705.417051 477282.9573
 -14480.57289 5949.659915 477207.2777
 -16804.83306 4201.066834 477149.6829
 16934.5083 1629.428144 477160.8101
 14960.32771 2028.714713 477225.2552
 11654.83455 2290.275295 477316.2377
 7373.496522 2446.618754 477400.7927
 2520.072931 2520.072836 477450.6988
 -2520.072929 2520.072857 477450.6988
 -7373.496527 2446.618736 477400.7927
 -11654.83454 2290.275309 477316.2377
 -14960.32771 2028.714704 477225.2552
 -16934.5083 1629.428147 477160.8101
 16934.50828 -1629.42815 477160.8101
 14960.32778 -2028.714718 477225.2552
 11654.83443 -2290.275301 477316.2377
 7373.496667 -2446.618758 477400.7927
 2520.072771 -2520.072843 477450.6988
 -2520.072773 -2520.072861 477450.6988
 -7373.496662 -2446.618742 477400.7927
 -11654.83444 -2290.275314 477316.2377
 -14960.32777 -2028.71471 477225.2552
 -16934.50828 -1629.428152 477160.8101
 16804.83307 -4201.066841 477149.6829
 14480.57284 -5949.659914 477207.2777
 11308.72761 -6705.417068 477282.9573
 7157.858709 -7157.858765 477356.6815
 2446.618814 -7373.496606 477400.7927
 -2446.618813 -7373.496591 477400.7927
 -7157.858713 -7157.858778 477356.6815
 -11308.7276 -6705.417058 477282.9573
 -14480.57284 -5949.65992 477207.2777
 -16804.83307 -4201.066839 477149.6829
 0 0 0
 13066.71839 -10102.01454 477178.2492
 10620.87602 -10620.87605 477227.687
 6705.417103 -11308.72757 477282.9573
 2290.275256 -11654.83449 477316.2377
 -2290.275257 -11654.8345 477316.2377
 -6705.417101 -11308.72756 477282.9573
 -10620.87602 -10620.87605 477227.687
 -13066.71839 -10102.01454 477178.2492
 0 0 -0
 0 0 0
 12459.33078 -12459.33079 477138.7654
 10102.01455 -13066.71838 477178.2492
 5949.65989 -14480.57286 477207.2777
 2028.71474 -14960.32775 477225.2552
 -2028.71474 -14960.32774 477225.2552
 -5949.659892 -14480.57287 477207.2777
 -10102.01455 -13066.71838 477178.2492
 -12459.33078 -12459.33079 477138.7654
 0 0 -0
 0 0 0
 0 0 0
 0 0 0
 4201.066843 -16804.83307 477149.6829
 1629.428139 -16934.50829 477160.8101
 -1629.428139 -16934.50829 477160.8101
 -4201.066843 -16804.83307 477149.6829
 0 0 -0
 0 0 -0
 0 0 -0
 0 0 0
 0 0 0
 0 0 0
 3220.899359 12966.70725 477277.0282
 1249.457139 13063.36854 477283.6249
 -1249.457139 13063.36853 477283.6249
 -3220.899359 12966.70726 477277.0282
 0 0 -0
 0 0 -0
 0 0 -0
 0 0 0
 9616.62238 9616.622384 477270.2719
 7795.315778 10078.98099 477293.954
 4584.290247 11176.20498 477311.1648
 1562.591316 11551.98127 477321.6749
 -1562.591315 11551.9813 477321.6749
 -4584.290248 11176.20496 477311.1648
 -7795.315778 10078.981 477293.954
 -9616.62238 9616.622381 477270.2719
 0 0 -0
 0 0 0
 10078.98101 7795.315755 477293.954
 8200.704123 8200.70417 477323.1277
 5182.715601 8745.551291 477355.7647
 1771.504891 9023.635167 477375.4362
 -1771.504892 9023.635122 477375.4362
 -5182.715598 8745.55133 477355.7647
 -8200.704125 8200.704144 477323.1277
 -10078.98101 7795.315766 477293.954
 0 0 -0
 12966.70727 3220.899347 477277.0282
 11176.20494 4584.290285 477311.1648
 8745.551365 5182.715527 477355.7647
 5548.111149 5548.111241 477399.5268
 1899.105316 5725.071619 477425.8982
 -1899.105315 5725.071677 477425.8982
 -5548.111152 5548.11119 477399.5268
 -8745.551362 5182.715564 477355.7647
 -11176.20495 4584.290264 477311.1648
 -12966.70727 3220.899352 477277.0282
 13063.36852 1249.457153 477283.6249
 11551.98132 1562.591263 477321.6749
 9023.635088 1771.504971 477375.4362
 5725.071728 1899.105207 477425.8982
 1960.063734 1960.063849 477455.9536
 -1960.063735 1960.063785 477455.9536
 -5725.071724 1899.105264 477425.8982
 -9023.635091 1771.504927 477375.4362
 -11551.98132 1562.591289 477321.6749
 -13063.36852 1249.457144 477283.6249
 13063.36854 -1249.457158 477283.6249
 11551.98125 -1562.591268 477321.6749
 9023.635204 -1771.504975 477375.4362
 5725.071576 -1899.105213 477425.8982
 1960.063903 -1960.063854 477455.9536
 -1960.063902 -1960.063791 477455.9536
 -5725.071579 -1899.105268 477425.8982
 -9023.635201 -1771.504933 477375.4362
 -11551.98125 -1562.591294 477321.6749
 -13063.36854 -1249.457149 477283.6249
 12966.70725 -3220.899352 477277.0282
 11176.205 -4584.290289 477311.1648
 8745.551265 -5182.715533 477355.7647
 5548.111282 -5548.111244 477399.5268
 1899.105167 -5725.071626 477425.8982
 -1899.105168 -5725.071681 477425.8982
 -5548.111279 -5548.111196 477399.5268
 -8745.551268 -5182.715569 477355.7647
 -11176.205 -4584.290269 477311.1648
 -12966.70725 -3220.899357 477277.0282
 0 0 0
 10078.98098 -7795.315761 477293.954
 8200.704191 -8200.704173 477323.1277
 5182.715502 -8745.551298 477355.7647
 1771.505005 -9023.63517 477375.4362
 -1771.505004 -9023.635129 477375.4362
 -5182.715504 -8745.551333 477355.7647
 -8200.704189 -8200.704149 477323.1277
 -10078.98098 -7795.315771 477293.954
 0 0 -0
 0 0 0
 9616.622389 -9616.622389 477270.2719
 7795.31575 -10078.98099 477293.954
 4584.290302 -11176.20499 477311.1648
 1562.591247 -11551.98127 477321.6749
 -1562.591247 -11551.9813 477321.6749
 -4584.290301 -11176.20497 477311.1648
 -7795.315751 -10078.981 477293.954
 -9616.622389 -9616.622386 477270.2719
 0 0 -0
 0 0 0
 0 0 0
 0 0 0
 3220.899346 -12966.70726 477277.0282
 1249.457161 -13063.36854 477283.6249
 -1249.457161 -13063.36853 477283.6249
 -3220.899346 -12966.70726 477277.0282
 0 0 -0
 0 0 -0
 0 0 -0
 0 0 0
 0 0 0
 0 0 0
 2449.624019 9900.455354 477355.0582
 950.1077884 9970.597926 477358.9381
 -950.1077884 9970.597942 477358.9381
 -2449.624019 9900.455344 477355.0582
 0 0 -0
 0 0 -0
 0 0 -0
 0 0 0
 7345.238844 7345.238833 477350.9885
 5948.738165 7689.766747 477365.0085
 3493.211247 8525.774661 477375.0935
 1189.961496 8811.550409 477381.2018
 -1189.961496 8811.55036 477381.2018
 -3493.211246 8525.7747 477375.0935
 -5948.738165 7689.766727 477365.0085
 -7345.238843 7345.23884 477350.9885
 0 0 -0
 0 0 0
 7689.766726 5948.738186 477365.0085
 6254.555436 6254.555378 477382.0612
 3951.713468 6670.896814 477401.0415
 1350.681152 6884.523292 477412.453
 -1350.681152 6884.523373 477412.453
 -3951.713468 6670.896745 477401.0415
 -6254.555436 6254.555425 477382.0612
 -7689.766726 5948.738166 477365.0085
 0 0 -0
 9900.455345 2449.624028 477355.0582
 8525.774709 3493.211198 477375.0935
 6670.896735 3951.713547 477401.0415
 4233.580021 4233.57991 477426.4602
 1449.667781 4371.0312 477441.7911
 -1449.667781 4371.031094 477441.7911
 -4233.58002 4233.580002 477426.4602
 -6670.896735 3951.713478 477401.0415
 -8525.774709 3493.211237 477375.0935
 -9900.455345 2449.624019 477355.0582
 9970.597946 950.1077678 477358.9381
 8811.550354 1189.961552 477381.2018
 6884.523389 1350.681054 477412.453
 4371.031079 1449.667902 477441.7911
 1497.323432 1497.323291 477459.3044
 -1497.323432 1497.323411 477459.3044
 -4371.031079 1449.667797 477441.7911
 -6884.523388 1350.681135 477412.453
 -8811.550354 1189.961503 477381.2018
 -9970.597946 950.1077832 477358.9381
 9970.597926 -950.1077723 477358.9381
 8811.550418 -1189.961556 477381.2018
 6884.523283 -1350.681059 477412.453
 4371.031218 -1449.667907 477441.7911
 1497.323276 -1497.323296 477459.3044
 -1497.323276 -1497.323415 477459.3044
 -4371.031217 -1449.667801 477441.7911
 -6884.523283 -1350.681139 477412.453
 -8811.550418 -1189.961508 477381.2018
 -9970.597926 -950.1077877 477358.9381
 9900.455357 -2449.624033 477355.0582
 8525.774658 -3493.211203 477375.0935
 6670.896825 -3951.713551 477401.0415
 4233.579899 -4233.579915 477426.4602
 1449.667919 -4371.031204 477441.7911
 -1449.667919 -4371.031099 477441.7911
 -4233.579899 -4233.580007 477426.4602
 -6670.896825 -3951.713483 477401.0415
 -8525.774658 -3493.211241 477375.0935
 -9900.455357 -2449.624023 477355.0582
 0 0 0
 7689.766751 -5948.73819 477365.0085
 6254.555374 -6254.555383 477382.0612
 3951.713558 -6670.896818 477401.0415
 1350.681046 -6884.523297 477412.453
 -1350.681046 -6884.523378 477412.453
 -3951.713558 -6670.896749 477401.0415
 -6254.555375 -6254.55543 477382.0612
 -7689.766751 -5948.738171 477365.0085
 0 0 -0
 0 0 0
 7345.238835 -7345.238838 477350.9885
 5948.73819 -7689.766751 477365.0085
 3493.211195 -8525.774666 477375.0935
 1189.96156 -8811.550413 477381.2018
 -1189.96156 -8811.550364 477381.2018
 -3493.211195 -8525.774705 477375.0935
 -5948.73819 -7689.766732 477365.0085
 -7345.238835 -7345.238845 477350.9885
 0 0 -0
 0 0 0
 0 0 0
 0 0 0
 2449.624032 -9900.455358 477355.0582
 950.1077682 -9970.597931 477358.9381
 -950.1077682 -9970.597946 477358.9381
 -2449.624032 -9900.455349 477355.0582
 0 0 -0
 0 0 -0
 0 0 -0
 0 0 0
 0 0 0
 0 0 0
 1857.761565 7526.084918 477401.0663
 720.3501776 7576.410933 477403.3414
 -720.3501776 7576.410911 477403.3414
 -1857.761566 7526.084932 477401.0663
 0 0 -0
 0 0 -0
 0 0 -0
 0 0 0
 5585.852203 5585.852209 477398.6466
 4518.684711 5840.318622 477406.8951
 2649.879446 6472.274897 477412.7764
 902.0685227 6686.772454 477416.3221
 -902.0685229 6686.772525 477416.3221
 -2649.879445 6472.274841 477412.7764
 -4518.684711 5840.318651 477406.8951
 -5585.852202 5585.852199 477398.6466
 0 0 -0
 0 0 0
 5840.318649 4518.684684 477406.8951
 4745.722066 4745.722123 477416.8279
 2995.721081 5058.461748 477427.8049
 1023.462925 5218.977856 477434.3788
 -1023.462924 5218.977739 477434.3788
 -2995.721083 5058.461848 477427.8049
 -4745.722065 4745.722055 477416.8279
 -5840.318649 4518.684712 477406.8951
 0 0 -0
 7526.084932 1857.761552 477401.0663
 6472.274851 2649.879493 477412.7764
 5058.461836 2995.720993 477427.8049
 3208.155777 3208.155892 477442.4434
 1098.246047 3311.865256 477451.2506
 -1098.246048 3311.86541 477451.2506
 -3208.155775 3208.155756 477442.4434
 -5058.461838 2995.721093 477427.8049
 -6472.274849 2649.879436 477412.7764
 -7526.084932 1857.761565 477401.0663
 7576.410916 720.3501951 477403.3414
 6686.772517 902.0684588 477416.3221
 5218.977758 1023.463025 477434.3788
 3311.865391 1098.245911 477451.2506
 1134.309717 1134.309867 477461.3052
 -1134.309716 1134.309692 477461.3052
 -3311.865394 1098.246065 477451.2506
 -5218.977754 1023.462907 477434.3788
 -6686.772519 902.06853 477416.3221
 -7576.410915 720.3501726 477403.3414
 7576.410932 -720.3501993 477403.3414
 6686.772467 -902.0684629 477416.3221
 5218.977841 -1023.463029 477434.3788
 3311.86528 -1098.245915 477451.2506
 1134.309845 -1134.309871 477461.3052
 -1134.309846 -1134.309695 477461.3052
 -3311.865277 -1098.24607 477451.2506
 -5218.977844 -1023.462911 477434.3788
 -6686.772464 -902.0685343 477416.3221
 -7576.410933 -720.3501767 477403.3414
 7526.084922 -1857.761556 477401.0663
 6472.274891 -2649.879497 477412.7764
 5058.461764 -2995.720997 477427.8049
 3208.155874 -3208.155896 477442.4434
 1098.245934 -3311.86526 477451.2506
 -1098.245933 -3311.865415 477451.2506
 -3208.155877 -3208.15576 477442.4434
 -5058.461762 -2995.721097 477427.8049
 -6472.274893 -2649.87944 477412.7764
 -7526.084922 -1857.761569 477401.0663
 0 0 0
 5840.318629 -4518.684688 477406.8951
 4745.722115 -4745.722127 477416.8279
 2995.721009 -5058.461751 477427.8049
 1023.463011 -5218.977861 477434.3788
 -1023.463011 -5218.977742 477434.3788
 -2995.721007 -5058.461853 477427.8049
 -4745.722117 -4745.722058 477416.8279
 -5840.318628 -4518.684717 477406.8951
 0 0 -0
 0 0 0
 5585.85221 -5585.852213 477398.6466
 4518.68469 -5840.318626 477406.8951
 2649.879487 -6472.274902 477412.7764
 902.0684705 -6686.772458 477416.3221
 -902.0684702 -6686.77253 477416.3221
 -2649.879487 -6472.274844 477412.7764
 -4518.68469 -5840.318655 477406.8951
 -5585.85221 -5585.852203 477398.6466
 0 0 -0
 0 0 0
 0 0 0
 0 0 0
 1857.761556 -7526.084922 477401.0663
 720.3501941 -7576.410938 477403.3414
 -720.3501942 -7576.410915 477403.3414
 -1857.761555 -7526.084936 477401.0663
 0 0 -0
 0 0 -0
 0 0 -0
 0 0 0
 0 0 0
 0 0 0
 1410.891946 5722.948505 477427.616
 546.8977973 5759.022672 477428.9537
 -546.8977975 5759.0227 477428.9537
 -1410.891946 5722.948488 477427.616
 0 0 -0
 0 0 -0
 0 0 -0
 0 0 0
 4249.293611 4249.293601 477426.181
 3433.391098 4437.130039 477431.0369
 2011.087741 4914.283138 477434.4737
 684.1630883 5074.751348 477436.5404
 -684.1630877 5074.75126 477436.5404
 -2011.087743 4914.283208 477434.4737
 -3433.391097 4437.130004 477431.0369
 -4249.293612 4249.293613 477426.181
 0 0 -0
 0 0 0
 4437.130017 3433.39112 477431.0369
 3601.200485 3601.200425 477436.8377
 2270.643012 3834.822805 477443.2004
 775.2570509 3954.450618 477446.9945
 -775.257052 3954.450764 477446.9945
 -2270.643009 3834.822681 477443.2004
 -3601.200488 3601.20051 477436.8377
 -4437.130016 3433.391085 477431.0369
 0 0 -0
 5722.948495 1410.891956 477427.616
 4914.283187 2011.087691 477434.4737
 3834.822722 2270.643096 477443.2004
 2429.305997 2429.305878 477451.6397
 831.1360686 2506.597688 477456.697
 -831.1360669 2506.597495 477456.697
 -2429.306001 2429.306047 477451.6397
 -3834.822717 2270.642971 477443.2004
 -4914.283191 2011.087761 477434.4737
 -5722.948494 1410.891939 477427.616
 5759.022693 546.8977761 477428.9537
 5074.75129 684.1631478 477436.5404
 3954.45072 775.256947 477446.9945
 2506.597556 831.1362014 477456.697
 858.0320137 858.0318586 477462.4581
 -858.0320157 858.0320768 477462.4581
 -2506.597551 831.1360084 477456.697
 -3954.450727 775.2570939 477446.9945
 -5074.751285 684.1630591 477436.5404
 -5759.022695 546.8978041 477428.9537
 5759.022683 -546.8977798 477428.9537
 5074.751322 -684.1631517 477436.5404
 3954.450665 -775.2569506 477446.9945
 2506.597632 -831.1362054 477456.697
 858.0319245 -858.031862 477462.4581
 -858.0319224 -858.0320809 477462.4581
 -2506.597637 -831.1360119 477456.697
 -3954.450659 -775.2570979 477446.9945
 -5074.751328 -684.1630627 477436.5404
 -5759.022681 -546.8978079 477428.9537
 5722.948501 -1410.89196 477427.616
 4914.283162 -2011.087695 477434.4737
 3834.822769 -2270.6431 477443.2004
 2429.30593 -2429.305881 477451.6397
 831.1361476 -2506.597693 477456.697
 -831.1361494 -2506.597498 477456.697
 -2429.305926 -2429.306051 477451.6397
 -3834.822775 -2270.642974 477443.2004
 -4914.283158 -2011.087765 477434.4737
 -5722.948502 -1410.891943 477427.616
 0 0 0
 4437.13003 -3433.391124 477431.0369
 3601.200453 -3601.200429 477436.8377
 2270.643061 -3834.82281 477443.2004
 775.2569906 -3954.450621 477446.9945
 -775.2569893 -3954.450769 477446.9945
 -2270.643064 -3834.822684 477443.2004
 -3601.200449 -3601.200514 477436.8377
 -4437.130032 -3433.391089 477431.0369
 0 0 -0
 0 0 0
 4249.293607 -4249.293605 477426.181
 3433.391112 -4437.130043 477431.0369
 2011.087713 -4914.283141 477434.4737
 684.1631249 -5074.751353 477436.5404
 -684.1631255 -5074.751263 477436.5404
 -2011.087712 -4914.283212 477434.4737
 -3433.391113 -4437.130008 477431.0369
 -4249.293606 -4249.293617 477426.181
 0 0 -0
 0 0 0
 0 0 0
 0 0 0
 1410.891953 -5722.948509 477427.616
 546.8977857 -5759.022676 477428.9537
 -546.8977856 -5759.022704 477428.9537
 -1410.891953 -5722.948491 477427.616
 0 0 -0
 0 0 -0
 0 0 -0
 0 0 0
 0 0 0
 0 0 0
 1076.751569 4369.488096 477442.7918
 417.2310522 4395.504695 477443.5849
 -417.231052 4395.504664 477443.5849
 -1076.75157 4369.488115 477442.7918
 0 0 -0
 0 0 -0
 0 0 -0
 0 0 0
 3245.703338 3245.703344 477441.9359
 2619.502009 3385.056174 477444.8145
 1532.888008 3746.61864 477446.8393
 521.1754032 3867.031934 477448.0555
 -521.1754039 3867.032031 477448.0555
 -1532.888006 3746.618563 477446.8393
 -2619.502011 3385.056212 477444.8145
 -3245.703337 3245.70333 477441.9359
 0 0 -0
 0 0 0
 3385.056197 2619.501986 477444.8145
 2743.909103 2743.909154 477448.2309
 1728.048498 2918.765871 477451.9515
 589.6026939 3007.980273 477454.1609
 -589.6026923 3007.980114 477454.1609
 -1728.048501 2918.766007 477451.9515
 -2743.909099 2743.909062 477448.2309
 -3385.056199 2619.502024 477444.8145
 0 0 -0
 4369.488109 1076.751557 477442.7918
 3746.618598 1532.888051 477446.8393
 2918.765951 1728.048417 477451.9515
 1846.55204 1846.552145 477456.8586
 631.3112988 1904.060393 477459.7861
 -631.311301 1904.060603 477459.7861
 -1846.552034 1846.551962 477456.8586
 -2918.765958 1728.048553 477451.9515
 -3746.618593 1532.887974 477446.8393
 -4369.48811 1076.751576 477442.7918
 4395.504679 417.2310683 477443.5849
 3867.031991 521.175345 477448.0555
 3007.980182 589.6027863 477454.1609
 1904.060519 631.3111723 477459.7861
 651.3107989 651.31094 477463.1115
 -651.3107963 651.3107029 477463.1115
 -1904.060526 631.3113819 477459.7861
 -3007.980174 589.6026266 477454.1609
 -3867.031998 521.1754414 477448.0555
 -4395.504677 417.2310378 477443.5849
 4395.504684 -417.2310717 477443.5849
 3867.031976 -521.1753484 477448.0555
 3007.98021 -589.6027897 477454.1609
 1904.060479 -631.3111756 477459.7861
 651.3108494 -651.3109435 477463.1115
 -651.310852 -651.3107063 477463.1115
 -1904.060472 -631.3113853 477459.7861
 -3007.980218 -589.60263 477454.1609
 -3867.03197 -521.1754448 477448.0555
 -4395.504686 -417.2310412 477443.5849
 4369.488106 -1076.75156 477442.7918
 3746.61861 -1532.888054 477446.8393
 2918.765928 -1728.04842 477451.9515
 1846.552075 -1846.552149 477456.8586
 631.311254 -1904.060396 477459.7861
 -631.3112518 -1904.060606 477459.7861
 -1846.552081 -1846.551965 477456.8586
 -2918.765921 -1728.048556 477451.9515
 -3746.618615 -1532.887977 477446.8393
 -4369.488105 -1076.751579 477442.7918
 0 0 0
 3385.056191 -2619.501989 477444.8145
 2743.909119 -2743.909158 477448.2309
 1728.048471 -2918.765875 477451.9515
 589.6027281 -3007.980277 477454.1609
 -589.6027297 -3007.980117 477454.1609
 -1728.048467 -2918.766011 477451.9515
 -2743.909124 -2743.909065 477448.2309
 -3385.056189 -2619.502028 477444.8145
 0 0 -0
 0 0 0
 3245.70334 -3245.703347 477441.9359
 2619.502002 -3385.056177 477444.8145
 1532.888023 -3746.618644 477446.8393
 521.1753823 -3867.031937 477448.0555
 -521.1753815 -3867.032034 477448.0555
 -1532.888025 -3746.618567 477446.8393
 -2619.502001 -3385.056216 477444.8145
 -3245.703341 -3245.703334 477441.9359
 0 0 -0
 0 0 0
 0 0 0
 0 0 0
 1076.751566 -4369.4881 477442.7918
 417.2310589 -4395.504698 477443.5849
 -417.2310591 -4395.504668 477443.5849
 -1076.751565 -4369.488119 477442.7918
 0 0 -0
 0 0 -0
 0 0 -0
 0 0 0
 0 0 0
 0 0 0
 828.0397837 3359.540522 477451.4626
 320.7439921 3378.509224 477451.939
 -320.7439923 3378.509253 477451.939
 -828.0397834 3359.540505 477451.4626
 0 0 -0
 0 0 -0
 0 0 -0
 0 0 0
 2496.56144 2496.561432 477450.9458
 2012.763896 2600.875627 477452.6736
 1176.951 2876.783557 477453.8828
 399.9580567 2967.804293 477454.6088
 -399.9580559 2967.804201 477454.6088
 -1176.951002 2876.783631 477453.8828
 -2012.763894 2600.87559 477452.6736
 -2496.56144 2496.561444 477450.9458
 0 0 -0
 0 0 0