# OOMMF OVF 2.0
#
# Segment count: 1
#
# Begin: Segment
# Begin: Header
#
# Title: Oxs_MinDriver::Magnetization
# Desc: Oxs vector field output
# Desc:  MIF source file: F:/Bogdan/UNIC/2022/Master_degree/Simulation_samples/Cylinder0_5000 1.mif
# Desc:  Iteration: 1721, State id: 11060
# Desc:  Stage: 6, Stage iteration: 69
# Desc:  Stage simulation time: 0 s
# Desc:  Total simulation time: -2 s
# meshunit: m
# meshtype: rectangular
# xbase: -8.9999999999999995e-09
# ybase: -8.9999999999999995e-09
# zbase: -8.6999999999999998e-08
# xnodes: 10
# ynodes: 10
# znodes: 88
# xstepsize: 2.0000000000000001e-09
# ystepsize: 2.0000000000000001e-09
# zstepsize: 2.0000000000000001e-09
# xmin: -1e-08
# ymin: -1e-08
# zmin: -8.7999999999999994e-08
# xmax: 1e-08
# ymax: 1e-08
# zmax: 8.800000000000002e-08
# valuedim: 3
# valuelabels: Magnetization_x Magnetization_y Magnetization_z
# valueunits: A/m A/m A/m
#
# End: Header
#
# Begin: Data Text
 0 0 0
 0 0 0
 0 0 0
 7800.376244 29207.19709 476505.9969
 2931.04797 29406.56141 476548.5646
 -2931.04797 29406.56141 476548.5646
 -7800.376244 29207.19708 476505.9969
 0 0 -0
 0 0 -0
 0 0 -0
 0 0 0
 21707.05978 21707.05977 476476.1048
 17224.85714 22611.18605 476617.1523
 10204.1298 24498.50867 476725.8857
 3447.692013 24995.15969 476796.8401
 -3447.692013 24995.15968 476796.8401
 -10204.1298 24498.50868 476725.8857
 -17224.85714 22611.18605 476617.1523
 -21707.05978 21707.05978 476476.1048
 0 0 -0
 0 0 0
 22611.18605 17224.85714 476617.1523
 17746.69212 17746.69212 476803.9232
 10985.71056 18465.16531 476980.3173
 3712.300444 18775.87585 477080.2413
 -3712.300444 18775.87586 477080.2413
 -10985.71056 18465.1653 476980.3173
 -17746.69212 17746.69212 476803.9232
 -22611.18605 17224.85714 476617.1523
 0 0 -0
 29207.19708 7800.376245 476505.9969
 24498.50868 10204.12979 476725.8857
 18465.1653 10985.71056 476980.3173
 11403.38758 11403.38758 477191.5724
 3850.607626 11585.12212 477307.8975
 -3850.607626 11585.12211 477307.8975
 -11403.38758 11403.38759 477191.5724
 -18465.1653 10985.71055 476980.3173
 -24498.50868 10204.1298 476725.8857
 -29207.19708 7800.376243 476505.9969
 29406.56141 2931.047968 476548.5646
 24995.15969 3447.692016 476796.8401
 18775.87585 3712.300438 477080.2413
 11585.12211 3850.607633 477307.8975
 3910.7976 3910.797591 477431.9665
 -3910.7976 3910.797608 477431.9665
 -11585.12211 3850.607619 477307.8975
 -18775.87585 3712.300449 477080.2413
 -24995.15969 3447.692009 476796.8401
 -29406.56141 2931.047971 476548.5646
 29406.56141 -2931.047969 476548.5646
 24995.15969 -3447.692016 476796.8401
 18775.87585 -3712.300439 477080.2413
 11585.12211 -3850.607634 477307.8975
 3910.7976 -3910.797592 477431.9665
 -3910.7976 -3910.797608 477431.9665
 -11585.12211 -3850.607619 477307.8975
 -18775.87585 -3712.30045 477080.2413
 -24995.15969 -3447.692009 476796.8401
 -29406.56141 -2931.047971 476548.5646
 29207.19708 -7800.376245 476505.9969
 24498.50868 -10204.12979 476725.8857
 18465.1653 -10985.71056 476980.3173
 11403.38758 -11403.38758 477191.5724
 3850.607626 -11585.12212 477307.8975
 -3850.607626 -11585.12211 477307.8975
 -11403.38758 -11403.38759 477191.5724
 -18465.1653 -10985.71055 476980.3173
 -24498.50868 -10204.1298 476725.8857
 -29207.19708 -7800.376244 476505.9969
 0 0 0
 22611.18605 -17224.85714 476617.1523
 17746.69212 -17746.69212 476803.9232
 10985.71056 -18465.16531 476980.3173
 3712.300444 -18775.87585 477080.2413
 -3712.300444 -18775.87586 477080.2413
 -10985.71056 -18465.1653 476980.3173
 -17746.69212 -17746.69212 476803.9232
 -22611.18605 -17224.85714 476617.1523
 0 0 -0
 0 0 0
 21707.05978 -21707.05978 476476.1048
 17224.85714 -22611.18605 476617.1523
 10204.1298 -24498.50867 476725.8857
 3447.692013 -24995.15969 476796.8401
 -3447.692013 -24995.15968 476796.8401
 -10204.1298 -24498.50868 476725.8857
 -17224.85714 -22611.18605 476617.1523
 -21707.05978 -21707.05978 476476.1048
 0 0 -0
 0 0 0
 0 0 0
 0 0 0
 7800.376244 -29207.19709 476505.9969
 2931.04797 -29406.56141 476548.5646
 -2931.04797 -29406.56141 476548.5646
 -7800.376244 -29207.19708 476505.9969
 0 0 -0
 0 0 -0
 0 0 -0
 0 0 0
 0 0 0
 0 0 0
 6497.664411 25146.9797 476757.0462
 2499.740835 25333.23522 476784.9094
 -2499.740835 25333.23522 476784.9094
 -6497.664411 25146.9797 476757.0462
 0 0 -0
 0 0 -0
 0 0 -0
 0 0 0
 18653.80055 18653.80055 476734.667
 15014.05584 19510.23544 476828.9003
 8872.454995 21432.19646 476900.2116
 3017.708521 22013.15198 476946.7327
 -3017.708521 22013.152 476946.7327
 -8872.454995 21432.19644 476900.2116
 -15014.05584 19510.23544 476828.9003
 -18653.80055 18653.80055 476734.667
 0 0 -0
 0 0 0
 19510.23544 15014.05584 476828.9003
 15628.32795 15628.32796 476952.18
 9763.200178 16429.49724 477081.3587
 3314.508326 16799.00846 477156.8701
 -3314.508325 16799.00843 477156.8701
 -9763.200178 16429.49726 477081.3587
 -15628.32795 15628.32795 476952.18
 -19510.23544 15014.05584 476828.9003
 0 0 -0
 25146.9797 6497.664409 476757.0462
 21432.19645 8872.455002 476900.2116
 16429.49725 9763.200165 477081.3587
 10245.68005 10245.68007 477244.092
 3474.763149 10459.92573 477336.7651
 -3474.763149 10459.92577 477336.7651
 -10245.68005 10245.68004 477244.092
 -16429.49725 9763.20019 477081.3587
 -21432.19645 8872.454987 476900.2116
 -25146.9797 6497.664412 476757.0462
 25333.23522 2499.740838 476784.9094
 22013.15199 3017.708511 476946.7327
 16799.00844 3314.508341 477156.8701
 10459.92575 3474.763129 477336.7651
 3545.386245 3545.386268 477437.6732
 -3545.386245 3545.386223 477437.6732
 -10459.92575 3474.763168 477336.7651
 -16799.00844 3314.50831 477156.8701
 -22013.15199 3017.70853 476946.7327
 -25333.23522 2499.740832 476784.9094
 25333.23522 -2499.740839 476784.9094
 22013.15199 -3017.708512 476946.7327
 16799.00844 -3314.508341 477156.8701
 10459.92575 -3474.763129 477336.7651
 3545.386246 -3545.386269 477437.6732
 -3545.386246 -3545.386223 477437.6732
 -10459.92575 -3474.763169 477336.7651
 -16799.00844 -3314.508311 477156.8701
 -22013.15199 -3017.70853 476946.7327
 -25333.23522 -2499.740833 476784.9094
 25146.9797 -6497.664409 476757.0462
 21432.19645 -8872.455002 476900.2116
 16429.49725 -9763.200165 477081.3587
 10245.68005 -10245.68007 477244.092
 3474.763148 -10459.92573 477336.7651
 -3474.763148 -10459.92577 477336.7651
 -10245.68005 -10245.68004 477244.092
 -16429.49725 -9763.200191 477081.3587
 -21432.19645 -8872.454987 476900.2116
 -25146.9797 -6497.664413 476757.0462
 0 0 0
 19510.23544 -15014.05584 476828.9003
 15628.32795 -15628.32796 476952.18
 9763.200177 -16429.49724 477081.3587
 3314.508326 -16799.00846 477156.8701
 -3314.508326 -16799.00843 477156.8701
 -9763.200177 -16429.49727 477081.3587
 -15628.32795 -15628.32795 476952.18
 -19510.23544 -15014.05584 476828.9003
 0 0 -0
 0 0 0
 18653.80055 -18653.80055 476734.667
 15014.05584 -19510.23544 476828.9003
 8872.454995 -21432.19646 476900.2116
 3017.70852 -22013.15198 476946.7327
 -3017.70852 -22013.152 476946.7327
 -8872.454995 -21432.19644 476900.2116
 -15014.05584 -19510.23544 476828.9003
 -18653.80055 -18653.80055 476734.667
 0 0 -0
 0 0 0
 0 0 0
 0 0 0
 6497.664411 -25146.9797 476757.0462
 2499.740836 -25333.23522 476784.9094
 -2499.740836 -25333.23522 476784.9094
 -6497.664411 -25146.9797 476757.0462
 0 0 -0
 0 0 -0
 0 0 -0
 0 0 0
 0 0 0
 0 0 0
 5161.048903 20365.44613 477001.555
 1998.533089 20523.54353 477018.5126
 -1998.533089 20523.54354 477018.5126
 -5161.048903 20365.44613 477001.555
 0 0 -0
 0 0 -0
 0 0 -0
 0 0 0
 15100.98027 15100.98027 476986.155
 12223.91175 15829.95605 477044.9243
 7213.208139 17496.81459 477088.7783
 2459.044444 18042.85191 477116.6313
 -2459.044444 18042.85188 477116.6313
 -7213.208139 17496.81461 477088.7783
 -12223.91175 15829.95604 477044.9243
 -15100.98027 15100.98027 476986.155
 0 0 -0
 0 0 0
 15829.95604 12223.91176 477044.9243
 12810.88305 12810.88304 477120.1461
 8059.134831 13577.0837 477202.8756
 2746.604612 13950.16161 477252.2608
 -2746.604612 13950.16165 477252.2608
 -8059.134831 13577.08367 477202.8756
 -12810.88305 12810.88306 477120.1461
 -15829.95604 12223.91175 477044.9243
 0 0 -0
 20365.44613 5161.048905 477001.555
 17496.8146 7213.208128 477088.7783
 13577.08369 8059.134849 477202.8756
 8544.057965 8544.05794 477311.0825
 2910.964207 8767.937031 477374.6127
 -2910.964207 8767.936977 477374.6127
 -8544.057965 8544.057987 477311.0825
 -13577.08369 8059.134814 477202.8756
 -17496.8146 7213.208148 477088.7783
 -20365.44613 5161.0489 477001.555
 20523.54354 1998.533085 477018.5126
 18042.85189 2459.044457 477116.6313
 13950.16163 2746.60459 477252.2608
 8767.937002 2910.964236 477374.6127
 2985.832754 2985.83272 477445.3277
 -2985.832754 2985.832782 477445.3277
 -8767.937002 2910.964181 477374.6127
 -13950.16163 2746.604632 477252.2608
 -18042.85189 2459.044432 477116.6313
 -20523.54354 1998.533093 477018.5126
 20523.54353 -1998.533085 477018.5126
 18042.8519 -2459.044458 477116.6313
 13950.16163 -2746.60459 477252.2608
 8767.937007 -2910.964237 477374.6127
 2985.832749 -2985.83272 477445.3277
 -2985.832749 -2985.832783 477445.3277
 -8767.937007 -2910.964181 477374.6127
 -13950.16163 -2746.604632 477252.2608
 -18042.8519 -2459.044432 477116.6313
 -20523.54353 -1998.533093 477018.5126
 20365.44613 -5161.048906 477001.555
 17496.8146 -7213.208128 477088.7783
 13577.08369 -8059.13485 477202.8756
 8544.057962 -8544.057939 477311.0825
 2910.964211 -8767.937033 477374.6127
 -2910.964211 -8767.936977 477374.6127
 -8544.057962 -8544.057988 477311.0825
 -13577.08369 -8059.134814 477202.8756
 -17496.8146 -7213.208149 477088.7783
 -20365.44613 -5161.048901 477001.555
 0 0 0
 15829.95604 -12223.91176 477044.9243
 12810.88305 -12810.88304 477120.1461
 8059.134833 -13577.08371 477202.8756
 2746.604609 -13950.16161 477252.2608
 -2746.604609 -13950.16165 477252.2608
 -8059.134833 -13577.08367 477202.8756
 -12810.88305 -12810.88306 477120.1461
 -15829.95604 -12223.91175 477044.9243
 0 0 -0
 0 0 0
 15100.98027 -15100.98027 476986.155
 12223.91175 -15829.95605 477044.9243
 7213.208138 -17496.81459 477088.7783
 2459.044446 -18042.85191 477116.6313
 -2459.044446 -18042.85188 477116.6313
 -7213.208138 -17496.81461 477088.7783
 -12223.91175 -15829.95604 477044.9243
 -15100.98027 -15100.98028 476986.155
 0 0 -0
 0 0 0
 0 0 0
 0 0 0
 5161.048903 -20365.44613 477001.555
 1998.533089 -20523.54353 477018.5126
 -1998.533089 -20523.54354 477018.5126
 -5161.048903 -20365.44613 477001.555
 0 0 -0
 0 0 -0
 0 0 -0
 0 0 0
 0 0 0
 0 0 0
 4001.674065 15963.69635 477180.2786
 1551.773697 16087.47137 477190.3777
 -1551.773697 16087.47136 477190.3777
 -4001.674065 15963.69635 477180.2786
 0 0 -0
 0 0 -0
 0 0 -0
 0 0 0
 11838.8613 11838.8613 477170.3616
 9597.9802 12415.93195 477206.0296
 5655.950865 13755.11499 477232.3106
 1928.893764 14208.9572 477248.6314
 -1928.893764 14208.95722 477248.6314
 -5655.950865 13755.11497 477232.3106
 -9597.9802 12415.93196 477206.0296
 -11838.8613 11838.8613 477170.3616
 0 0 -0
 0 0 0
 12415.93196 9597.980194 477206.0296
 10089.27745 10089.27747 477250.7562
 6369.259924 10738.88333 477300.723
 2175.340202 11065.13301 477330.8098
 -2175.340202 11065.13297 477330.8098
 -6369.259924 10738.88337 477300.723
 -10089.27745 10089.27744 477250.7562
 -12415.93196 9597.980204 477206.0296
 0 0 -0
 15963.69635 4001.674062 477180.2786
 13755.11498 5655.950876 477232.3106
 10738.88335 6369.259904 477300.723
 6795.198455 6795.198482 477367.2819
 2322.258709 6997.794558 477407.0687
 -2322.258709 6997.794612 477407.0687
 -6795.198455 6795.198435 477367.2819
 -10738.88335 6369.259939 477300.723
 -13755.11498 5655.950856 477232.3106
 -15963.69635 4001.674067 477180.2786
 16087.47137 1551.773701 477190.3777
 14208.95721 1928.893749 477248.6314
 11065.13299 2175.340226 477330.8098
 6997.79459 2322.258677 477407.0687
 2391.139698 2391.139734 477452.025
 -2391.139698 2391.139672 477452.025
 -6997.79459 2322.258731 477407.0687
 -11065.13299 2175.340184 477330.8098
 -14208.95721 1928.893774 477248.6314
 -16087.47137 1551.773693 477190.3777
 16087.47137 -1551.773702 477190.3777
 14208.95721 -1928.89375 477248.6314
 11065.13299 -2175.340227 477330.8098
 6997.79458 -2322.258677 477407.0687
 2391.139709 -2391.139735 477452.025
 -2391.139709 -2391.139672 477452.025
 -6997.79458 -2322.258732 477407.0687
 -11065.13299 -2175.340184 477330.8098
 -14208.95721 -1928.893775 477248.6314
 -16087.47137 -1551.773694 477190.3777
 15963.69635 -4001.674062 477180.2786
 13755.11499 -5655.950877 477232.3106
 10738.88334 -6369.259903 477300.723
 6795.198463 -6795.198484 477367.2819
 2322.258699 -6997.794557 477407.0687
 -2322.258699 -6997.794613 477407.0687
 -6795.198463 -6795.198435 477367.2819
 -10738.88335 -6369.25994 477300.723
 -13755.11499 -5655.950856 477232.3106
 -15963.69635 -4001.674067 477180.2786
 0 0 0
 12415.93196 -9597.980194 477206.0296
 10089.27746 -10089.27747 477250.7562
 6369.259918 -10738.88333 477300.723
 2175.340209 -11065.13301 477330.8098
 -2175.340209 -11065.13297 477330.8098
 -6369.259918 -10738.88337 477300.723
 -10089.27746 -10089.27744 477250.7562
 -12415.93196 -9597.980205 477206.0296
 0 0 -0
 0 0 0
 11838.8613 -11838.8613 477170.3616
 9597.980198 -12415.93195 477206.0296
 5655.950868 -13755.11499 477232.3106
 1928.89376 -14208.9572 477248.6314
 -1928.89376 -14208.95722 477248.6314
 -5655.950868 -13755.11497 477232.3106
 -9597.980198 -12415.93196 477206.0296
 -11838.8613 -11838.8613 477170.3616
 0 0 -0
 0 0 0
 0 0 0
 0 0 0
 4001.674064 -15963.69635 477180.2786
 1551.773698 -16087.47137 477190.3777
 -1551.773698 -16087.47136 477190.3777
 -4001.674064 -15963.69635 477180.2786
 0 0 -0
 0 0 -0
 0 0 -0
 0 0 0
 0 0 0
 0 0 0
 3059.000488 12281.59098 477296.2145
 1186.417172 12373.66283 477302.1644
 -1186.417172 12373.66284 477302.1644
 -3059.000488 12281.59098 477296.2145
 0 0 -0
 0 0 -0
 0 0 -0
 0 0 0
 9111.149979 9111.149977 477290.1059
 7385.045742 9549.307171 477311.3692
 4345.536109 10585.91287 477326.8545
 1481.499428 10940.75471 477336.3346
 -1481.499428 10940.75469 477336.3346
 -4345.536109 10585.91288 477326.8545
 -7385.045742 9549.307164 477311.3692
 -9111.149979 9111.149979 477290.1059
 0 0 -0
 0 0 0
 9549.307166 7385.045747 477311.3692
 7768.330021 7768.330009 477337.5927
 4909.503621 8282.249796 477366.9159
 1678.127144 8544.2697 477384.5941
 -1678.127144 8544.269728 477384.5941
 -4909.503621 8282.249772 477366.9159
 -7768.330021 7768.330025 477337.5927
 -9549.307166 7385.04574 477311.3692
 0 0 -0
 12281.59098 3059.00049 477296.2145
 10585.91288 4345.536098 477326.8545
 8282.249778 4909.503639 477366.9159
 5253.39799 5253.397966 477406.1949
 1798.065287 5419.770897 477429.8528
 -1798.065287 5419.77086 477429.8528
 -5253.39799 5253.397998 477406.1949
 -8282.249778 4909.503615 477366.9159
 -10585.91288 4345.536112 477326.8545
 -12281.59098 3059.000487 477296.2145
 12373.66284 1186.417168 477302.1644
 10940.75469 1481.499441 477336.3346
 8544.269722 1678.127123 477384.5941
 5419.77087 1798.065315 477429.8528
 1855.302266 1855.302234 477456.7907
 -1855.302266 1855.302277 477456.7907
 -5419.77087 1798.065277 477429.8528
 -8544.269721 1678.127151 477384.5941
 -10940.7547 1481.499423 477336.3346
 -12373.66284 1186.417174 477302.1644
 12373.66284 -1186.417169 477302.1644
 10940.7547 -1481.499441 477336.3346
 8544.269707 -1678.127123 477384.5941
 5419.770888 -1798.065315 477429.8528
 1855.302245 -1855.302234 477456.7907
 -1855.302245 -1855.302277 477456.7907
 -5419.770888 -1798.065277 477429.8528
 -8544.269708 -1678.127152 477384.5941
 -10940.7547 -1481.499424 477336.3346
 -12373.66284 -1186.417174 477302.1644
 12281.59098 -3059.000491 477296.2145
 10585.91287 -4345.536099 477326.8545
 8282.24979 -4909.50364 477366.9159
 5253.397974 -5253.397965 477406.1949
 1798.065305 -5419.770899 477429.8528
 -1798.065305 -5419.77086 477429.8528
 -5253.397974 -5253.397999 477406.1949
 -8282.24979 -4909.503614 477366.9159
 -10585.91287 -4345.536113 477326.8545
 -12281.59098 -3059.000487 477296.2145
 0 0 0
 9549.30717 -7385.045747 477311.3692
 7768.330013 -7768.330009 477337.5927
 4909.503633 -8282.249797 477366.9159
 1678.12713 -8544.2697 477384.5941
 -1678.12713 -8544.26973 477384.5941
 -4909.503633 -8282.249771 477366.9159
 -7768.330013 -7768.330026 477337.5927
 -9549.30717 -7385.04574 477311.3692
 0 0 -0
 0 0 0
 9111.149977 -9111.149977 477290.1059
 7385.045745 -9549.307172 477311.3692
 4345.536102 -10585.91287 477326.8545
 1481.499437 -10940.75471 477336.3346
 -1481.499437 -10940.75469 477336.3346
 -4345.536102 -10585.91288 477326.8545
 -7385.045745 -9549.307165 477311.3692
 -9111.149978 -9111.14998 477290.1059
 0 0 -0
 0 0 0
 0 0 0
 0 0 0
 3059.00049 -12281.59098 477296.2145
 1186.41717 -12373.66283 477302.1644
 -1186.41717 -12373.66284 477302.1644
 -3059.00049 -12281.59098 477296.2145
 0 0 -0
 0 0 -0
 0 0 -0
 0 0 0
 0 0 0
 0 0 0
 2320.944777 9354.509269 477366.7119
 900.0109351 9421.139134 477370.1954
 -900.0109352 9421.139133 477370.1954
 -2320.944777 9354.509269 477366.7119
 0 0 -0
 0 0 -0
 0 0 -0
 0 0 0
 6942.404951 6942.404952 477363.0456
 5622.02273 7267.987374 477375.576
 3303.298881 8055.843873 477384.6069
 1125.496739 8325.077115 477390.0896
 -1125.496739 8325.077117 477390.0896
 -3303.298881 8055.843871 477384.6069
 -5622.02273 7267.987375 477375.576
 -6942.404951 6942.404951 477363.0456
 0 0 -0
 0 0 0
 7267.987377 5622.022727 477375.576
 5910.49855 5910.498558 477390.8287
 3734.481631 6302.409224 477407.7969
 1276.469129 6503.358221 477418.0016
 -1276.469129 6503.358216 477418.0016
 -3734.48163 6302.409228 477407.7969
 -5910.49855 5910.498555 477390.8287
 -7267.987377 5622.022728 477375.576
 0 0 -0
 9354.50927 2320.944775 477366.7119
 8055.843867 3303.298887 477384.6069
 6302.409236 3734.481619 477407.7969
 3999.343065 3999.34308 477430.4995
 1369.390132 4128.428551 477444.1875
 -1369.390132 4128.428557 477444.1875
 -3999.343066 3999.343075 477430.4995
 -6302.409235 3734.481623 477407.7969
 -8055.843867 3303.298884 477384.6069
 -9354.50927 2320.944776 477366.7119
 9421.139131 900.0109374 477370.1954
 8325.077123 1125.496731 477390.0896
 6503.358207 1276.469141 477418.0016
 4128.428569 1369.390114 477444.1875
 1414.101864 1414.101884 477459.8118
 -1414.101864 1414.101877 477459.8118
 -4128.428569 1369.390121 477444.1875
 -6503.358208 1276.469137 477418.0016
 -8325.077122 1125.496734 477390.0896
 -9421.139131 900.0109365 477370.1954
 9421.139136 -900.0109378 477370.1954
 8325.077109 -1125.496731 477390.0896
 6503.35823 -1276.469142 477418.0016
 4128.42854 -1369.390115 477444.1875
 1414.101897 -1414.101884 477459.8118
 -1414.101896 -1414.101877 477459.8118
 -4128.428541 -1369.390121 477444.1875
 -6503.358229 -1276.469137 477418.0016
 -8325.07711 -1125.496734 477390.0896
 -9421.139135 -900.0109369 477370.1954
 9354.509268 -2320.944775 477366.7119
 8055.843877 -3303.298887 477384.6069
 6302.409217 -3734.481619 477407.7969
 3999.343091 -3999.343081 477430.4995
 1369.390103 -4128.428551 477444.1875
 -1369.390103 -4128.428558 477444.1875
 -3999.34309 -3999.343075 477430.4995
 -6302.409217 -3734.481624 477407.7969
 -8055.843877 -3303.298885 477384.6069
 -9354.509268 -2320.944776 477366.7119
 0 0 0
 7267.987372 -5622.022727 477375.576
 5910.498563 -5910.498558 477390.8287
 3734.481612 -6302.409224 477407.7969
 1276.46915 -6503.358221 477418.0016
 -1276.46915 -6503.358216 477418.0016
 -3734.481612 -6302.409229 477407.7969
 -5910.498563 -5910.498555 477390.8287
 -7267.987372 -5622.022728 477375.576
 0 0 -0
 0 0 0
 6942.404953 -6942.404952 477363.0456
 5622.022725 -7267.987374 477375.576
 3303.298891 -8055.843873 477384.6069
 1125.496726 -8325.077115 477390.0896
 -1125.496726 -8325.077118 477390.0896
 -3303.298891 -8055.843871 477384.6069
 -5622.022725 -7267.987375 477375.576
 -6942.404952 -6942.404952 477363.0456
 0 0 -0
 0 0 0
 0 0 0
 0 0 0
 2320.944774 -9354.509269 477366.7119
 900.0109393 -9421.139134 477370.1954
 -900.0109393 -9421.139133 477370.1954
 -2320.944774 -9354.50927 477366.7119
 0 0 -0
 0 0 -0
 0 0 -0
 0 0 0
 0 0 0
 0 0 0
 1757.027477 7097.788031 477408.0074
 681.1381705 7145.455295 477410.0437
 -681.1381705 7145.455291 477410.0437
 -1757.027477 7097.788034 477408.0074
 0 0 -0
 0 0 -0
 0 0 -0
 0 0 0
 5269.811872 5269.811872 477405.8331
 4262.532039 5509.647445 477413.1815
 2501.130347 6103.935918 477418.4303
 851.6023782 6305.560163 477421.6019
 -851.6023783 6305.560178 477421.6019
 -2501.130347 6103.935905 477418.4303
 -4262.532039 5509.647451 477413.1815
 -5269.811872 5269.81187 477405.8331
 0 0 -0
 0 0 0
 5509.647445 4262.53204 477413.1815
 4476.165267 4476.165266 477422.0347
 2825.660042 4769.909473 477431.8118
 965.3924263 4920.584976 477437.6683
 -965.3924261 4920.58495 477437.6683
 -2825.660042 4769.909495 477431.8118
 -4476.165267 4476.165251 477422.0347
 -5509.647445 4262.532046 477413.1815
 0 0 -0
 7097.788031 1757.027477 477408.0074
 6103.935919 2501.130346 477418.4303
 4769.909472 2825.660043 477431.8118
 3024.87319 3024.873188 477444.8362
 1035.457535 3122.090174 477452.6696
 -1035.457535 3122.090208 477452.6696
 -3024.873189 3024.873158 477444.8362
 -4769.909472 2825.660065 477431.8118
 -6103.935918 2501.130334 477418.4303
 -7097.788031 1757.02748 477408.0074
 7145.455296 681.1381701 477410.0437
 6305.560162 851.6023788 477421.6019
 4920.584978 965.3924247 477437.6683
 3122.090172 1035.457537 477452.6696
 1069.235527 1069.235525 477461.6055
 -1069.235527 1069.235486 477461.6055
 -3122.090173 1035.457571 477452.6696
 -4920.584977 965.3923989 477437.6683
 -6305.560162 851.6023944 477421.6019
 -7145.455296 681.1381652 477410.0437
 7145.45529 -681.1381705 477410.0437
 6305.56018 -851.6023791 477421.6019
 4920.584948 -965.3924252 477437.6683
 3122.090211 -1035.457537 477452.6696
 1069.235484 -1069.235525 477461.6055
 -1069.235484 -1069.235487 477461.6055
 -3122.09021 -1035.457571 477452.6696
 -4920.584949 -965.3923992 477437.6683
 -6305.560179 -851.6023948 477421.6019
 -7145.455291 -681.1381655 477410.0437
 7097.788034 -1757.027478 477408.0074
 6103.935904 -2501.130347 477418.4303
 4769.909497 -2825.660043 477431.8118
 3024.873156 -3024.873188 477444.8362
 1035.457573 -3122.090175 477452.6696
 -1035.457573 -3122.090209 477452.6696
 -3024.873157 -3024.873158 477444.8362
 -4769.909496 -2825.660066 477431.8118
 -6103.935905 -2501.130334 477418.4303
 -7097.788034 -1757.027481 477408.0074
 0 0 0
 5509.647452 -4262.53204 477413.1815
 4476.16525 -4476.165267 477422.0347
 2825.660067 -4769.909473 477431.8118
 965.3923972 -4920.584976 477437.6683
 -965.3923974 -4920.58495 477437.6683
 -2825.660067 -4769.909496 477431.8118
 -4476.16525 -4476.165251 477422.0347
 -5509.647452 -4262.532046 477413.1815
 0 0 -0
 0 0 0
 5269.81187 -5269.811872 477405.8331
 4262.532046 -5509.647446 477413.1815
 2501.130333 -6103.935918 477418.4303
 851.6023957 -6305.560163 477421.6019
 -851.6023956 -6305.560179 477421.6019
 -2501.130333 -6103.935905 477418.4303
 -4262.532046 -5509.647452 477413.1815
 -5269.81187 -5269.81187 477405.8331
 0 0 -0
 0 0 0
 0 0 0
 0 0 0
 1757.027481 -7097.788031 477408.0074
 681.138165 -7145.455296 477410.0437
 -681.138165 -7145.455291 477410.0437
 -1757.027481 -7097.788034 477408.0074
 0 0 -0
 0 0 -0
 0 0 -0
 0 0 0
 0 0 0
 0 0 0
 1332.82803 5390.450461 477431.7102
 516.5132647 5424.524939 477432.9053
 -516.5132648 5424.52495 477432.9053
 -1332.82803 5390.450455 477431.7102
 0 0 -0
 0 0 -0
 0 0 -0
 0 0 0
 4003.937689 4003.937688 477430.4224
 3234.641315 4180.570323 477434.7403
 1895.769303 4628.554169 477437.801
 645.0565687 4779.101097 477439.6458
 -645.0565686 4779.101062 477439.6458
 -1895.769303 4628.554196 477437.801
 -3234.641315 4180.57031 477434.7403
 -4003.937689 4003.937692 477430.4224
 0 0 -0
 0 0 0
 4180.570321 3234.641318 477434.7403
 3392.184993 3392.184986 477439.8993
 2138.871546 3611.185596 477445.5528
 730.2800994 3723.252951 477448.9244
 -730.2800996 3723.253008 477448.9244
 -2138.871545 3611.185548 477445.5528
 -3392.184993 3392.185019 477439.8993
 -4180.57032 3234.641304 477434.7403
 0 0 -0
 5390.45046 1332.828031 477431.7102
 4628.554174 1895.769297 477437.801
 3611.185586 2138.871556 477445.5528
 2287.363768 2287.363754 477453.0419
 782.5305965 2359.672178 477457.5278
 -782.5305961 2359.672103 477457.5278
 -2287.363768 2287.36382 477453.0419
 -3611.185585 2138.871507 477445.5528
 -4628.554175 1895.769324 477437.801
 -5390.45046 1332.828025 477431.7102
 5424.524941 516.5132622 477432.9053
 4779.10109 645.056576 477439.6458
 3723.252963 730.2800869 477448.9244
 2359.672163 782.5306124 477457.5278
 807.6727882 807.6727701 477462.6337
 -807.6727886 807.6728553 477462.6337
 -2359.672162 782.530537 477457.5278
 -3723.252964 730.2801443 477448.9244
 -4779.101089 645.0565414 477439.6458
 -5424.524941 516.5132732 477432.9053
 5424.524948 -516.5132625 477432.9053
 4779.101069 -645.0565764 477439.6458
 3723.252997 -730.2800871 477448.9244
 2359.672118 -782.5306129 477457.5278
 807.6728378 -807.6727701 477462.6337
 -807.6728374 -807.6728559 477462.6337
 -2359.672119 -782.5305371 477457.5278
 -3723.252996 -730.2801448 477448.9244
 -4779.10107 -645.0565416 477439.6458
 -5424.524947 -516.5132735 477432.9053
 5390.450456 -1332.828032 477431.7102
 4628.554191 -1895.769297 477437.801
 3611.185557 -2138.871557 477445.5528
 2287.363807 -2287.363754 477453.0419
 782.5305526 -2359.672179 477457.5278
 -782.5305529 -2359.672103 477457.5278
 -2287.363806 -2287.36382 477453.0419
 -3611.185558 -2138.871507 477445.5528
 -4628.55419 -1895.769325 477437.801
 -5390.450456 -1332.828025 477431.7102
 0 0 0
 4180.570312 -3234.641318 477434.7403
 3392.185012 -3392.184986 477439.8993
 2138.871517 -3611.185597 477445.5528
 730.2801328 -3723.252951 477448.9244
 -730.2801326 -3723.253009 477448.9244
 -2138.871518 -3611.185547 477445.5528
 -3392.185012 -3392.185019 477439.8993
 -4180.570313 -3234.641304 477434.7403
 0 0 -0
 0 0 0
 4003.937691 -4003.937688 477430.4224
 3234.641307 -4180.570324 477434.7403
 1895.769319 -4628.554169 477437.801
 645.0565485 -4779.101098 477439.6458
 -645.0565487 -4779.101062 477439.6458
 -1895.769319 -4628.554197 477437.801
 -3234.641307 -4180.57031 477434.7403
 -4003.937691 -4003.937693 477430.4224
 0 0 -0
 0 0 0
 0 0 0
 0 0 0
 1332.828026 -5390.450462 477431.7102
 516.5132711 -5424.524939 477432.9053
 -516.5132711 -5424.52495 477432.9053
 -1332.828026 -5390.450455 477431.7102
 0 0 -0
 0 0 -0
 0 0 -0
 0 0 0
 0 0 0
 0 0 0
 1016.602182 4112.923571 477445.2028
 393.8210801 4137.438894 477445.9109
 -393.8210801 4137.438878 477445.9109
 -1016.602182 4112.923581 477445.2028
 0 0 -0
 0 0 -0
 0 0 -0
 0 0 0
 3056.377414 3056.377416 477444.4349
 2466.212415 3187.187274 477446.9928
 1444.008947 3526.290238 477448.7945
 491.0464558 3639.097512 477449.8792
 -491.0464559 3639.097562 477449.8792
 -1444.008947 3526.290198 477448.7945
 -2466.212416 3187.187294 477446.9928
 -3056.377414 3056.377409 477444.4349
 0 0 -0
 0 0 0
 3187.18728 2466.212409 477446.9928
 2582.793395 2582.79341 477450.0284
 1626.539404 2746.455045 477453.3303
 554.9687393 2829.891602 477455.2911
 -554.968739 2829.891519 477455.2911
 -1626.539404 2746.455115 477453.3303
 -2582.793394 2582.793361 477450.0284
 -3187.18728 2466.212429 477446.9928
 0 0 -0
 4112.923574 1016.602179 477445.2028
 3526.290226 1444.008959 477448.7945
 2746.455066 1626.539382 477453.3303
 1737.26349 1737.263519 477457.6789
 593.9018677 1790.968605 477460.2717
 -593.9018681 1790.968714 477460.2717
 -1737.263489 1737.263423 477457.6789
 -2746.455067 1626.539453 477453.3303
 -3526.290225 1444.008919 477448.7945
 -4112.923574 1016.602189 477445.2028
 4137.43889 393.821085 477445.9109
 3639.097527 491.0464398 477449.8792
 2829.891577 554.9687652 477455.2911
 1790.968638 593.9018336 477460.2717
 612.5639963 612.5640342 477463.2141
 -612.5639958 612.5639098 477463.2141
 -1790.968639 593.9019436 477460.2717
 -2829.891576 554.9686814 477455.2911
 -3639.097528 491.0464904 477449.8792
 -4137.438889 393.821069 477445.9109
 4137.438883 -393.8210853 477445.9109
 3639.097548 -491.04644 477449.8792
 2829.891543 -554.9687656 477455.2911
 1790.968682 -593.9018337 477460.2717
 612.5639476 -612.5640347 477463.2141
 -612.5639481 -612.5639098 477463.2141
 -1790.968681 -593.9019441 477460.2717
 -2829.891545 -554.9686816 477455.2911
 -3639.097547 -491.0464907 477449.8792
 -4137.438883 -393.8210693 477445.9109
 4112.923578 -1016.60218 477445.2028
 3526.29021 -1444.00896 477448.7945
 2746.455095 -1626.539381 477453.3303
 1737.263452 -1737.26352 477457.6789
 593.9019107 -1790.968604 477460.2717
 -593.9019103 -1790.968715 477460.2717
 -1737.263453 -1737.263423 477457.6789
 -2746.455094 -1626.539453 477453.3303
 -3526.29021 -1444.008919 477448.7945
 -4112.923578 -1016.602189 477445.2028
 0 0 0
 3187.187288 -2466.212409 477446.9928
 2582.793376 -2582.79341 477450.0284
 1626.539432 -2746.455044 477453.3303
 554.9687066 -2829.891603 477455.2911
 -554.9687068 -2829.891518 477455.2911
 -1626.539431 -2746.455116 477453.3303
 -2582.793376 -2582.793361 477450.0284
 -3187.187288 -2466.212429 477446.9928
 0 0 -0
 0 0 0
 3056.377412 -3056.377417 477444.4349
 2466.212423 -3187.187274 477446.9928
 1444.008931 -3526.290239 477448.7945
 491.0464755 -3639.097512 477449.8792
 -491.0464753 -3639.097563 477449.8792
 -1444.008931 -3526.290198 477448.7945
 -2466.212423 -3187.187294 477446.9928
 -3056.377412 -3056.37741 477444.4349
 0 0 -0
 0 0 0
 0 0 0
 0 0 0
 1016.602186 -4112.923571 477445.2028
 393.8210739 -4137.438895 477445.9109
 -393.8210739 -4137.438878 477445.9109
 -1016.602186 -4112.923581 477445.2028
 0 0 -0
 0 0 -0
 0 0 -0
 0 0 0
 0 0 0
 0 0 0
 781.7828094 3162.007195 477452.8896
 302.741812 3179.846967 477453.3152
 -302.741812 3179.846986 477453.3152
 -781.7828094 3162.007183 477452.8896
 0 0 -0
 0 0 -0
 0 0 -0
 0 0 0
 2350.79421 2350.794207 477452.4257
 1894.788406 2448.596463 477453.9616
 1108.586578 2707.244266 477455.0378
 376.7903747 2792.441796 477455.6855
 -376.7903745 2792.441736 477455.6855
 -1108.586579 2707.244314 477455.0378
 -1894.788405 2448.596439 477453.9616
 -2350.79421 2350.794215 477452.4257
 0 0 -0
 0 0 0
 2448.596454 1894.788415 477453.9616