# OOMMF OVF 2.0
#
# Segment count: 1
#
# Begin: Segment
# Begin: Header
#
# Title: Oxs_MinDriver::Magnetization
# Desc: Oxs vector field output
# Desc:  MIF source file: F:/Bogdan/UNIC/2022/Master_degree/Simulation_samples/Cylinder0_5000 1.mif
# Desc:  Iteration: 1722, State id: 7394
# Desc:  Stage: 6, Stage iteration: 69
# Desc:  Stage simulation time: 0 s
# Desc:  Total simulation time: -2 s
# meshunit: m
# meshtype: rectangular
# xbase: -8.9999999999999995e-09
# ybase: -8.9999999999999995e-09
# zbase: -8.6999999999999998e-08
# xnodes: 10
# ynodes: 10
# znodes: 88
# xstepsize: 2.0000000000000001e-09
# ystepsize: 2.0000000000000001e-09
# zstepsize: 2.0000000000000001e-09
# xmin: -1e-08
# ymin: -1e-08
# zmin: -8.7999999999999994e-08
# xmax: 1e-08
# ymax: 1e-08
# zmax: 8.800000000000002e-08
# valuedim: 3
# valuelabels: Magnetization_x Magnetization_y Magnetization_z
# valueunits: A/m A/m A/m
#
# End: Header
#
# Begin: Data Text
 0 0 0
 0 0 0
 0 0 0
 7800.376245 29207.19709 476505.9969
 2931.047968 29406.5614 476548.5646
 -2931.047968 29406.5614 476548.5646
 -7800.376245 29207.19709 476505.9969
 0 0 -0
 0 0 -0
 0 0 -0
 0 0 0
 21707.05978 21707.05978 476476.1048
 17224.85714 22611.18604 476617.1523
 10204.12979 24498.50868 476725.8857
 3447.692003 24995.15967 476796.8401
 -3447.692003 24995.15968 476796.8401
 -10204.12979 24498.50868 476725.8857
 -17224.85714 22611.18604 476617.1523
 -21707.05978 21707.05978 476476.1048
 0 0 -0
 0 0 0
 22611.18604 17224.85714 476617.1523
 17746.69213 17746.69213 476803.9232
 10985.71055 18465.16529 476980.3173
 3712.300445 18775.87585 477080.2413
 -3712.300445 18775.87584 477080.2413
 -10985.71055 18465.1653 476980.3173
 -17746.69213 17746.69213 476803.9232
 -22611.18604 17224.85714 476617.1523
 0 0 -0
 29207.19709 7800.376244 476505.9969
 24498.50868 10204.1298 476725.8857
 18465.16529 10985.71054 476980.3173
 11403.38759 11403.38759 477191.5724
 3850.607616 11585.1221 477307.8975
 -3850.607616 11585.12211 477307.8975
 -11403.38759 11403.38758 477191.5724
 -18465.16529 10985.71055 476980.3173
 -24498.50868 10204.12979 476725.8857
 -29207.19709 7800.376245 476505.9969
 29406.5614 2931.047969 476548.5646
 24995.15967 3447.692 476796.8401
 18775.87585 3712.30045 477080.2413
 11585.12211 3850.607609 477307.8975
 3910.797607 3910.797614 477431.9665
 -3910.797607 3910.797601 477431.9665
 -11585.12211 3850.607621 477307.8975
 -18775.87585 3712.300441 477080.2413
 -24995.15967 3447.692005 476796.8401
 -29406.5614 2931.047967 476548.5646
 29406.5614 -2931.047969 476548.5646
 24995.15967 -3447.692 476796.8401
 18775.87585 -3712.30045 477080.2413
 11585.12211 -3850.607609 477307.8975
 3910.797609 -3910.797614 477431.9665
 -3910.797609 -3910.797601 477431.9665
 -11585.12211 -3850.607621 477307.8975
 -18775.87585 -3712.300441 477080.2413
 -24995.15967 -3447.692005 476796.8401
 -29406.5614 -2931.047967 476548.5646
 29207.19709 -7800.376244 476505.9969
 24498.50868 -10204.1298 476725.8857
 18465.16529 -10985.71054 476980.3173
 11403.38759 -11403.38759 477191.5724
 3850.607614 -11585.1221 477307.8975
 -3850.607614 -11585.12211 477307.8975
 -11403.38759 -11403.38758 477191.5724
 -18465.16529 -10985.71055 476980.3173
 -24498.50868 -10204.12979 476725.8857
 -29207.19709 -7800.376245 476505.9969
 0 0 0
 22611.18604 -17224.85714 476617.1523
 17746.69213 -17746.69213 476803.9232
 10985.71055 -18465.16529 476980.3173
 3712.300447 -18775.87585 477080.2413
 -3712.300447 -18775.87584 477080.2413
 -10985.71055 -18465.1653 476980.3173
 -17746.69213 -17746.69213 476803.9232
 -22611.18604 -17224.85714 476617.1523
 0 0 -0
 0 0 0
 21707.05978 -21707.05978 476476.1048
 17224.85714 -22611.18604 476617.1523
 10204.12979 -24498.50868 476725.8857
 3447.692002 -24995.15967 476796.8401
 -3447.692002 -24995.15968 476796.8401
 -10204.12979 -24498.50868 476725.8857
 -17224.85714 -22611.18604 476617.1523
 -21707.05978 -21707.05978 476476.1048
 0 0 -0
 0 0 0
 0 0 0
 0 0 0
 7800.376245 -29207.19709 476505.9969
 2931.047968 -29406.5614 476548.5646
 -2931.047968 -29406.5614 476548.5646
 -7800.376245 -29207.19709 476505.9969
 0 0 -0
 0 0 -0
 0 0 -0
 0 0 0
 0 0 0
 0 0 0
 6497.664417 25146.97971 476757.0462
 2499.740827 25333.23522 476784.9094
 -2499.740827 25333.23522 476784.9094
 -6497.664417 25146.97971 476757.0462
 0 0 -0
 0 0 -0
 0 0 -0
 0 0 0
 18653.80055 18653.80055 476734.667
 15014.05585 19510.23545 476828.9003
 8872.45498 21432.19644 476900.2116
 3017.708526 22013.15199 476946.7327
 -3017.708526 22013.15198 476946.7327
 -8872.45498 21432.19645 476900.2116
 -15014.05585 19510.23544 476828.9003
 -18653.80055 18653.80056 476734.667
 0 0 -0
 0 0 0
 19510.23545 15014.05586 476828.9003
 15628.32795 15628.32794 476952.18
 9763.200189 16429.49728 477081.3587
 3314.508307 16799.00842 477156.8701
 -3314.508307 16799.00845 477156.8701
 -9763.200189 16429.49726 477081.3587
 -15628.32795 15628.32795 476952.18
 -19510.23545 15014.05585 476828.9003
 0 0 -0
 25146.97971 6497.664419 476757.0462
 21432.19644 8872.454973 476900.2116
 16429.49726 9763.2002 477081.3587
 10245.68004 10245.68003 477244.092
 3474.763153 10459.92577 477336.7651
 -3474.763153 10459.92573 477336.7651
 -10245.68004 10245.68005 477244.092
 -16429.49727 9763.200179 477081.3587
 -21432.19644 8872.454985 476900.2116
 -25146.97971 6497.664416 476757.0462
 25333.23522 2499.740824 476784.9094
 22013.15198 3017.708534 476946.7327
 16799.00843 3314.508294 477156.8701
 10459.92575 3474.76317 477336.7651
 3545.386252 3545.386232 477437.6732
 -3545.386252 3545.386268 477437.6732
 -10459.92575 3474.763138 477336.7651
 -16799.00843 3314.508318 477156.8701
 -22013.15198 3017.708519 476946.7327
 -25333.23522 2499.740829 476784.9094
 25333.23522 -2499.740824 476784.9094
 22013.15199 -3017.708534 476946.7327
 16799.00843 -3314.508294 477156.8701
 10459.92575 -3474.76317 477336.7651
 3545.386248 -3545.386232 477437.6732
 -3545.386248 -3545.386268 477437.6732
 -10459.92575 -3474.763138 477336.7651
 -16799.00843 -3314.508318 477156.8701
 -22013.15199 -3017.708519 476946.7327
 -25333.23522 -2499.740829 476784.9094
 25146.97971 -6497.664419 476757.0462
 21432.19644 -8872.454973 476900.2116
 16429.49727 -9763.2002 477081.3587
 10245.68004 -10245.68003 477244.092
 3474.763156 -10459.92577 477336.7651
 -3474.763156 -10459.92573 477336.7651
 -10245.68004 -10245.68005 477244.092
 -16429.49727 -9763.200179 477081.3587
 -21432.19644 -8872.454985 476900.2116
 -25146.97971 -6497.664416 476757.0462
 0 0 0
 19510.23545 -15014.05586 476828.9003
 15628.32794 -15628.32794 476952.18
 9763.200191 -16429.49728 477081.3587
 3314.508304 -16799.00842 477156.8701
 -3314.508304 -16799.00845 477156.8701
 -9763.200191 -16429.49726 477081.3587
 -15628.32794 -15628.32795 476952.18
 -19510.23545 -15014.05585 476828.9003
 0 0 -0
 0 0 0
 18653.80055 -18653.80055 476734.667
 15014.05585 -19510.23545 476828.9003
 8872.454978 -21432.19644 476900.2116
 3017.708528 -22013.15199 476946.7327
 -3017.708528 -22013.15198 476946.7327
 -8872.454978 -21432.19645 476900.2116
 -15014.05585 -19510.23544 476828.9003
 -18653.80055 -18653.80056 476734.667
 0 0 -0
 0 0 0
 0 0 0
 0 0 0
 6497.664418 -25146.97971 476757.0462
 2499.740826 -25333.23522 476784.9094
 -2499.740826 -25333.23522 476784.9094
 -6497.664418 -25146.97971 476757.0462
 0 0 -0
 0 0 -0
 0 0 -0
 0 0 0
 0 0 0
 0 0 0
 5161.048905 20365.44614 477001.555
 1998.533087 20523.54354 477018.5126
 -1998.533087 20523.54353 477018.5126
 -5161.048905 20365.44614 477001.555
 0 0 -0
 0 0 -0
 0 0 -0
 0 0 0
 15100.98028 15100.98028 476986.155
 12223.91176 15829.95604 477044.9243
 7213.20814 17496.81461 477088.7783
 2459.04444 18042.85188 477116.6313
 -2459.044439 18042.8519 477116.6313
 -7213.20814 17496.8146 477088.7783
 -12223.91176 15829.95605 477044.9243
 -15100.98028 15100.98028 476986.155
 0 0 -0
 0 0 0
 15829.95604 12223.91176 477044.9243
 12810.88306 12810.88307 477120.1461
 8059.134819 13577.08367 477202.8756
 2746.604616 13950.16165 477252.2608
 -2746.604616 13950.16162 477252.2608
 -8059.134818 13577.08369 477202.8756
 -12810.88306 12810.88305 477120.1461
 -15829.95604 12223.91176 477044.9243
 0 0 -0
 20365.44614 5161.048903 477001.555
 17496.81461 7213.208148 477088.7783
 13577.08368 8059.134806 477202.8756
 8544.057973 8544.057991 477311.0825
 2910.964193 8767.936975 477374.6127
 -2910.964193 8767.937017 477374.6127
 -8544.057973 8544.057955 477311.0825
 -13577.08368 8059.134833 477202.8756
 -17496.81461 7213.208132 477088.7783
 -20365.44614 5161.048907 477001.555
 20523.54353 1998.53309 477018.5126
 18042.85189 2459.04443 477116.6313
 13950.16163 2746.604631 477252.2608
 8767.936996 2910.964173 477374.6127
 2985.83276 2985.832783 477445.3277
 -2985.83276 2985.832736 477445.3277
 -8767.936996 2910.964214 477374.6127
 -13950.16163 2746.6046 477252.2608
 -18042.85189 2459.04445 477116.6313
 -20523.54353 1998.533083 477018.5126
 20523.54353 -1998.533089 477018.5126
 18042.85189 -2459.04443 477116.6313
 13950.16163 -2746.604631 477252.2608
 8767.936996 -2910.964173 477374.6127
 2985.83276 -2985.832783 477445.3277
 -2985.83276 -2985.832736 477445.3277
 -8767.936996 -2910.964214 477374.6127
 -13950.16163 -2746.6046 477252.2608
 -18042.85189 -2459.04445 477116.6313
 -20523.54353 -1998.533083 477018.5126
 20365.44614 -5161.048903 477001.555
 17496.81461 -7213.208147 477088.7783
 13577.08368 -8059.134806 477202.8756
 8544.057973 -8544.057991 477311.0825
 2910.964193 -8767.936975 477374.6127
 -2910.964193 -8767.937017 477374.6127
 -8544.057973 -8544.057955 477311.0825
 -13577.08368 -8059.134833 477202.8756
 -17496.81461 -7213.208132 477088.7783
 -20365.44614 -5161.048907 477001.555
 0 0 0
 15829.95604 -12223.91176 477044.9243
 12810.88306 -12810.88307 477120.1461
 8059.134819 -13577.08367 477202.8756
 2746.604616 -13950.16165 477252.2608
 -2746.604616 -13950.16162 477252.2608
 -8059.134819 -13577.08369 477202.8756
 -12810.88306 -12810.88305 477120.1461
 -15829.95604 -12223.91176 477044.9243
 0 0 -0
 0 0 0
 15100.98028 -15100.98028 476986.155
 12223.91176 -15829.95604 477044.9243
 7213.20814 -17496.81461 477088.7783
 2459.044439 -18042.85188 477116.6313
 -2459.04444 -18042.8519 477116.6313
 -7213.20814 -17496.8146 477088.7783
 -12223.91176 -15829.95605 477044.9243
 -15100.98028 -15100.98028 476986.155
 0 0 -0
 0 0 0
 0 0 0
 0 0 0
 5161.048905 -20365.44614 477001.555
 1998.533087 -20523.54354 477018.5126
 -1998.533087 -20523.54353 477018.5126
 -5161.048905 -20365.44614 477001.555
 0 0 -0
 0 0 -0
 0 0 -0
 0 0 0
 0 0 0
 0 0 0
 4001.674071 15963.69637 477180.2786
 1551.773697 16087.47137 477190.3777
 -1551.773697 16087.47137 477190.3777
 -4001.674071 15963.69636 477180.2786
 0 0 -0
 0 0 -0
 0 0 -0
 0 0 0
 11838.86131 11838.86131 477170.3616
 9597.980211 12415.93196 477206.0296
 5655.950861 13755.11498 477232.3106
 1928.893758 14208.95722 477248.6314
 -1928.893758 14208.9572 477248.6314
 -5655.950861 13755.11499 477232.3106
 -9597.980211 12415.93196 477206.0296
 -11838.86131 11838.86131 477170.3616
 0 0 -0
 0 0 0
 12415.93196 9597.980214 477206.0296
 10089.27745 10089.27745 477250.7562
 6369.259924 10738.88337 477300.723
 2175.340191 11065.13297 477330.8098
 -2175.340191 11065.13299 477330.8098
 -6369.259924 10738.88334 477300.723
 -10089.27745 10089.27746 477250.7562
 -12415.93196 9597.980207 477206.0296
 0 0 -0
 15963.69637 4001.674072 477180.2786
 13755.11498 5655.950856 477232.3106
 10738.88336 6369.259932 477300.723
 6795.198445 6795.198434 477367.2819
 2322.258711 6997.794599 477407.0687
 -2322.258711 6997.794562 477407.0687
 -6795.198445 6795.198466 477367.2819
 -10738.88336 6369.259908 477300.723
 -13755.11498 5655.95087 477232.3106
 -15963.69637 4001.674068 477180.2786
 16087.47137 1551.773695 477190.3777
 14208.95721 1928.893763 477248.6314
 11065.13298 2175.340182 477330.8098
 6997.794587 2322.258723 477407.0687
 2391.139707 2391.139693 477452.025
 -2391.139707 2391.139734 477452.025
 -6997.794587 2322.258686 477407.0687
 -11065.13298 2175.34021 477330.8098
 -14208.95721 1928.893746 477248.6314
 -16087.47137 1551.773701 477190.3777
 16087.47137 -1551.773695 477190.3777
 14208.9572 -1928.893763 477248.6314
 11065.13298 -2175.340182 477330.8098
 6997.794575 -2322.258723 477407.0687
 2391.13972 -2391.139693 477452.025
 -2391.13972 -2391.139734 477452.025
 -6997.794575 -2322.258686 477407.0687
 -11065.13298 -2175.34021 477330.8098
 -14208.9572 -1928.893746 477248.6314
 -16087.47137 -1551.7737 477190.3777
 15963.69636 -4001.674072 477180.2786
 13755.11499 -5655.950856 477232.3106
 10738.88335 -6369.259932 477300.723
 6795.198455 -6795.198434 477367.2819
 2322.258699 -6997.794599 477407.0687
 -2322.258699 -6997.794563 477407.0687
 -6795.198455 -6795.198466 477367.2819
 -10738.88335 -6369.259908 477300.723
 -13755.11499 -5655.95087 477232.3106
 -15963.69636 -4001.674068 477180.2786
 0 0 0
 12415.93196 -9597.980214 477206.0296
 10089.27746 -10089.27745 477250.7562
 6369.259917 -10738.88337 477300.723
 2175.340199 -11065.13297 477330.8098
 -2175.340199 -11065.13299 477330.8098
 -6369.259917 -10738.88334 477300.723
 -10089.27746 -10089.27746 477250.7562
 -12415.93196 -9597.980207 477206.0296
 0 0 -0
 0 0 0
 11838.86131 -11838.86131 477170.3616
 9597.980209 -12415.93196 477206.0296
 5655.950865 -13755.11498 477232.3106
 1928.893753 -14208.95722 477248.6314
 -1928.893753 -14208.9572 477248.6314
 -5655.950865 -13755.11499 477232.3106
 -9597.980209 -12415.93196 477206.0296
 -11838.86131 -11838.86131 477170.3616
 0 0 -0
 0 0 0
 0 0 0
 0 0 0
 4001.67407 -15963.69637 477180.2786
 1551.773698 -16087.47137 477190.3777
 -1551.773698 -16087.47137 477190.3777
 -4001.67407 -15963.69636 477180.2786
 0 0 -0
 0 0 -0
 0 0 -0
 0 0 0
 0 0 0
 0 0 0
 3059.000496 12281.59099 477296.2145
 1186.417164 12373.66284 477302.1644
 -1186.417164 12373.66284 477302.1644
 -3059.000496 12281.59099 477296.2145
 0 0 -0
 0 0 -0
 0 0 -0
 0 0 0
 9111.149983 9111.149983 477290.1059
 7385.04575 9549.307166 477311.3692
 4345.536099 10585.91288 477326.8545
 1481.499438 10940.75468 477336.3346
 -1481.499438 10940.75469 477336.3346
 -4345.536099 10585.91287 477326.8545
 -7385.04575 9549.30717 477311.3692
 -9111.149983 9111.149981 477290.1059
 0 0 -0
 0 0 0
 9549.307165 7385.045751 477311.3692
 7768.330021 7768.330018 477337.5927
 4909.503616 8282.249787 477366.9159
 1678.127136 8544.269715 477384.5941
 -1678.127136 8544.269701 477384.5941
 -4909.503616 8282.249799 477366.9159
 -7768.330021 7768.33001 477337.5927
 -9549.307165 7385.045755 477311.3692
 0 0 -0
 12281.59099 3059.000496 477296.2145
 10585.91288 4345.536097 477326.8545
 8282.249783 4909.50362 477366.9159
 5253.397994 5253.397989 477406.1949
 1798.06527 5419.770866 477429.8528
 -1798.06527 5419.770884 477429.8528
 -5253.397994 5253.397973 477406.1949
 -8282.249783 4909.503632 477366.9159
 -10585.91288 4345.53609 477326.8545
 -12281.59099 3059.000498 477296.2145
 12373.66284 1186.417164 477302.1644
 10940.75468 1481.499441 477336.3346
 8544.269719 1678.127131 477384.5941
 5419.77086 1798.065276 477429.8528
 1855.302284 1855.302278 477456.7907
 -1855.302284 1855.302257 477456.7907
 -5419.77086 1798.065295 477429.8528
 -8544.269719 1678.127117 477384.5941
 -10940.75468 1481.49945 477336.3346
 -12373.66284 1186.417161 477302.1644
 12373.66284 -1186.417163 477302.1644
 10940.75469 -1481.499441 477336.3346
 8544.269696 -1678.127131 477384.5941
 5419.77089 -1798.065276 477429.8528
 1855.30225 -1855.302278 477456.7907
 -1855.30225 -1855.302257 477456.7907
 -5419.77089 -1798.065295 477429.8528
 -8544.269696 -1678.127117 477384.5941
 -10940.75469 -1481.49945 477336.3346
 -12373.66284 -1186.417161 477302.1644
 12281.59099 -3059.000496 477296.2145
 10585.91287 -4345.536097 477326.8545
 8282.249802 -4909.50362 477366.9159
 5253.397968 -5253.397989 477406.1949
 1798.0653 -5419.770866 477429.8528
 -1798.0653 -5419.770884 477429.8528
 -5253.397968 -5253.397973 477406.1949
 -8282.249802 -4909.503632 477366.9159
 -10585.91287 -4345.53609 477326.8545
 -12281.59099 -3059.000498 477296.2145
 0 0 0
 9549.307171 -7385.045751 477311.3692
 7768.330008 -7768.330018 477337.5927
 4909.503636 -8282.249787 477366.9159
 1678.127113 -8544.269715 477384.5941
 -1678.127113 -8544.269701 477384.5941
 -4909.503636 -8282.249799 477366.9159
 -7768.330008 -7768.33001 477337.5927
 -9549.307171 -7385.045755 477311.3692
 0 0 -0
 0 0 0
 9111.149981 -9111.149982 477290.1059
 7385.045756 -9549.307166 477311.3692
 4345.536088 -10585.91288 477326.8545
 1481.499452 -10940.75468 477336.3346
 -1481.499452 -10940.75469 477336.3346
 -4345.536088 -10585.91287 477326.8545
 -7385.045756 -9549.30717 477311.3692
 -9111.149981 -9111.149981 477290.1059
 0 0 -0
 0 0 0
 0 0 0
 0 0 0
 3059.000498 -12281.59099 477296.2145
 1186.41716 -12373.66284 477302.1644
 -1186.41716 -12373.66284 477302.1644
 -3059.000498 -12281.59099 477296.2145
 0 0 -0
 0 0 -0
 0 0 -0
 0 0 0
 0 0 0
 0 0 0
 2320.944779 9354.509275 477366.7119
 900.0109366 9421.139135 477370.1954
 -900.0109366 9421.139133 477370.1954
 -2320.944779 9354.509276 477366.7119
 0 0 -0
 0 0 -0
 0 0 -0
 0 0 0
 6942.404953 6942.404955 477363.0456
 5622.022739 7267.987374 477375.576
 3303.298881 8055.843869 477384.6069
 1125.49673 8325.077113 477390.0896
 -1125.49673 8325.077116 477390.0896
 -3303.298881 8055.843866 477384.6069
 -5622.022739 7267.987375 477375.576
 -6942.404953 6942.404954 477363.0456
 0 0 -0
 0 0 0
 7267.987379 5622.022733 477375.576
 5910.498548 5910.498561 477390.8287
 3734.481635 6302.409227 477407.7969
 1276.469119 6503.358209 477418.0016
 -1276.469119 6503.358203 477418.0016
 -3734.481635 6302.409232 477407.7969
 -5910.498548 5910.498558 477390.8287
 -7267.987379 5622.022734 477375.576
 0 0 -0
 9354.509278 2320.944776 477366.7119
 8055.843858 3303.298892 477384.6069
 6302.409246 3734.481615 477407.7969
 3999.343042 3999.343068 477430.4995
 1369.390137 4128.428541 477444.1875
 -1369.390137 4128.428548 477444.1875
 -3999.343042 3999.343062 477430.4995
 -6302.409246 3734.48162 477407.7969
 -8055.843858 3303.298889 477384.6069
 -9354.509278 2320.944777 477366.7119
 9421.13913 900.0109409 477370.1954
 8325.077127 1125.496716 477390.0896
 6503.358186 1276.469141 477418.0016
 4128.428571 1369.390107 477444.1875
 1414.101854 1414.101888 477459.8118
 -1414.101854 1414.10188 477459.8118
 -4128.428571 1369.390115 477444.1875
 -6503.358186 1276.469136 477418.0016
 -8325.077127 1125.49672 477390.0896
 -9421.13913 900.0109398 477370.1954
 9421.139138 -900.0109409 477370.1954
 8325.077102 -1125.496716 477390.0896
 6503.358226 -1276.469141 477418.0016
 4128.428518 -1369.390107 477444.1875
 1414.101914 -1414.101888 477459.8118
 -1414.101914 -1414.10188 477459.8118
 -4128.428518 -1369.390115 477444.1875
 -6503.358226 -1276.469136 477418.0016
 -8325.077102 -1125.49672 477390.0896
 -9421.139138 -900.0109398 477370.1954
 9354.509273 -2320.944776 477366.7119
 8055.843878 -3303.298892 477384.6069
 6302.409212 -3734.481615 477407.7969
 3999.343088 -3999.343068 477430.4995
 1369.390084 -4128.428541 477444.1875
 -1369.390084 -4128.428548 477444.1875
 -3999.343088 -3999.343062 477430.4995
 -6302.409212 -3734.48162 477407.7969
 -8055.843878 -3303.298889 477384.6069
 -9354.509273 -2320.944777 477366.7119
 0 0 0
 7267.98737 -5622.022733 477375.576
 5910.498571 -5910.498561 477390.8287
 3734.4816 -6302.409227 477407.7969
 1276.469159 -6503.358209 477418.0016
 -1276.469159 -6503.358203 477418.0016
 -3734.4816 -6302.409232 477407.7969
 -5910.498571 -5910.498558 477390.8287
 -7267.98737 -5622.022735 477375.576
 0 0 -0
 0 0 0
 6942.404956 -6942.404955 477363.0456
 5622.022729 -7267.987374 477375.576
 3303.2989 -8055.843869 477384.6069
 1125.496705 -8325.077113 477390.0896
 -1125.496705 -8325.077116 477390.0896
 -3303.2989 -8055.843866 477384.6069
 -5622.022729 -7267.987375 477375.576
 -6942.404956 -6942.404954 477363.0456
 0 0 -0
 0 0 0
 0 0 0
 0 0 0
 2320.944774 -9354.509275 477366.7119
 900.0109443 -9421.139135 477370.1954
 -900.0109443 -9421.139133 477370.1954
 -2320.944774 -9354.509276 477366.7119
 0 0 -0
 0 0 -0
 0 0 -0
 0 0 0
 0 0 0
 0 0 0
 1757.027488 7097.788043 477408.0074
 681.1381627 7145.455296 477410.0437
 -681.1381627 7145.455301 477410.0437
 -1757.027488 7097.78804 477408.0074
 0 0 -0
 0 0 -0
 0 0 -0
 0 0 0
 5269.811878 5269.811875 477405.8331
 4262.532045 5509.647447 477413.1815
 2501.130348 6103.935908 477418.4303
 851.6023862 6305.560159 477421.6019
 -851.6023863 6305.560145 477421.6019
 -2501.130348 6103.93592 477418.4303
 -4262.532045 5509.647441 477413.1815
 -5269.811878 5269.811877 477405.8331
 0 0 -0
 0 0 0
 5509.647437 4262.532055 477413.1815
 4476.165267 4476.165243 477422.0347
 2825.660024 4769.909509 477431.8118
 965.3924243 4920.584942 477437.6683
 -965.3924243 4920.584966 477437.6683
 -2825.660025 4769.909489 477431.8118
 -4476.165267 4476.165258 477422.0347
 -5509.647437 4262.532049 477413.1815
 0 0 -0
 7097.788038 1757.027493 477408.0074
 6103.935927 2501.130329 477418.4303
 4769.909475 2825.660059 477431.8118
 3024.873196 3024.873149 477444.8362
 1035.457507 3122.090198 477452.6696
 -1035.457507 3122.090166 477452.6696
 -3024.873195 3024.873177 477444.8362
 -4769.909475 2825.660038 477431.8118
 -6103.935927 2501.130341 477418.4303
 -7097.788038 1757.02749 477408.0074
 7145.455304 681.1381551 477410.0437
 6305.560134 851.6024105 477421.6019
 4920.584983 965.3923839 477437.6683
 3122.090144 1035.45756 477452.6696
 1069.235565 1069.235505 477461.6055
 -1069.235565 1069.235541 477461.6055
 -3122.090144 1035.457528 477452.6696
 -4920.584983 965.3924083 477437.6683
 -6305.560135 851.6023958 477421.6019
 -7145.455304 681.1381597 477410.0437
 7145.455293 -681.138155 477410.0437
 6305.56017 -851.6024105 477421.6019
 4920.584925 -965.3923839 477437.6683
 3122.09022 -1035.45756 477452.6696
 1069.23548 -1069.235505 477461.6055
 -1069.23548 -1069.235541 477461.6055
 -3122.09022 -1035.457528 477452.6696
 -4920.584925 -965.3924083 477437.6683
 -6305.560169 -851.6023958 477421.6019
 -7145.455293 -681.1381597 477410.0437
 7097.788045 -1757.027493 477408.0074
 6103.9359 -2501.130329 477418.4303
 4769.909524 -2825.660059 477431.8118
 3024.873129 -3024.873149 477444.8362
 1035.457583 -3122.090198 477452.6696
 -1035.457583 -3122.090166 477452.6696
 -3024.873129 -3024.873177 477444.8362
 -4769.909524 -2825.660038 477431.8118
 -6103.9359 -2501.130341 477418.4303
 -7097.788045 -1757.02749 477408.0074
 0 0 0
 5509.647451 -4262.532055 477413.1815
 4476.165233 -4476.165243 477422.0347
 2825.660074 -4769.909509 477431.8118
 965.3923665 -4920.584942 477437.6683
 -965.3923665 -4920.584966 477437.6683
 -2825.660074 -4769.909489 477431.8118
 -4476.165233 -4476.165258 477422.0347
 -5509.647451 -4262.532049 477413.1815
 0 0 -0
 0 0 0
 5269.811874 -5269.811875 477405.8331
 4262.532059 -5509.647447 477413.1815
 2501.13032 -6103.935908 477418.4303
 851.6024211 -6305.560159 477421.6019
 -851.6024211 -6305.560144 477421.6019
 -2501.13032 -6103.93592 477418.4303
 -4262.532059 -5509.647441 477413.1815
 -5269.811874 -5269.811877 477405.8331
 0 0 -0
 0 0 0
 0 0 0
 0 0 0
 1757.027495 -7097.788043 477408.0074
 681.1381517 -7145.455296 477410.0437
 -681.1381517 -7145.455301 477410.0437
 -1757.027495 -7097.78804 477408.0074
 0 0 -0
 0 0 -0
 0 0 -0
 0 0 0
 0 0 0
 0 0 0
 1332.828028 5390.450454 477431.7102
 516.5132682 5424.524944 477432.9053
 -516.5132682 5424.524937 477432.9053
 -1332.828028 5390.450458 477431.7102
 0 0 -0
 0 0 -0
 0 0 -0
 0 0 0
 4003.937681 4003.937686 477430.4224
 3234.641321 4180.570316 477434.7403
 1895.769305 4628.554184 477437.801
 645.0565722 4779.101067 477439.6458
 -645.0565722 4779.101089 477439.6458
 -1895.769305 4628.554167 477437.801
 -3234.64132 4180.570325 477434.7403
 -4003.937681 4003.937683 477430.4224
 0 0 -0
 0 0 0
 4180.570329 3234.641308 477434.7403
 3392.184975 3392.185006 477439.8993
 2138.871557 3611.185556 477445.5528
 730.2800883 3723.252986 477448.9244
 -730.2800883 3723.252951 477448.9244
 -2138.871557 3611.185586 477445.5528
 -3392.184975 3392.184985 477439.8993
 -4180.570329 3234.641316 477434.7403
 0 0 -0
 5390.45046 1332.828022 477431.7102
 4628.554159 1895.76933 477437.801
 3611.185601 2138.871512 477445.5528
 2287.363732 2287.363793 477453.0419
 782.5306215 2359.67211 477457.5278
 -782.5306215 2359.672157 477457.5278
 -2287.363732 2287.363752 477453.0419
 -3611.185601 2138.871542 477445.5528
 -4628.554159 1895.769313 477437.801
 -5390.45046 1332.828026 477431.7102
 5424.524934 516.5132781 477432.9053
 4779.101099 645.0565407 477439.6458
 3723.252933 730.2801407 477448.9244
 2359.67218 782.5305524 477457.5278
 807.6727428 807.6728216 477462.6337
 -807.6727429 807.6727691 477462.6337
 -2359.67218 782.5305988 477457.5278
 -3723.252933 730.2801053 477448.9244
 -4779.101099 645.0565621 477439.6458
 -5424.524934 516.5132714 477432.9053
 5424.524948 -516.5132781 477432.9053
 4779.101056 -645.0565407 477439.6458
 3723.253004 -730.2801406 477448.9244
 2359.672087 -782.5305524 477457.5278
 807.6728484 -807.6728216 477462.6337
 -807.6728484 -807.6727691 477462.6337
 -2359.672087 -782.5305988 477457.5278
 -3723.253004 -730.2801053 477448.9244
 -4779.101056 -645.0565621 477439.6458
 -5424.524948 -516.5132714 477432.9053
 5390.450452 -1332.828022 477431.7102
 4628.554193 -1895.76933 477437.801
 3611.18554 -2138.871512 477445.5528
 2287.363814 -2287.363793 477453.0419
 782.5305282 -2359.67211 477457.5278
 -782.5305282 -2359.672157 477457.5278
 -2287.363814 -2287.363752 477453.0419
 -3611.18554 -2138.871542 477445.5528
 -4628.554193 -1895.769313 477437.801
 -5390.450452 -1332.828026 477431.7102
 0 0 0
 4180.570312 -3234.641308 477434.7403
 3392.185016 -3392.185006 477439.8993
 2138.871496 -3611.185556 477445.5528
 730.2801594 -3723.252986 477448.9244
 -730.2801594 -3723.252951 477448.9244
 -2138.871496 -3611.185586 477445.5528
 -3392.185016 -3392.184985 477439.8993
 -4180.570312 -3234.641316 477434.7403
 0 0 -0
 0 0 0
 4003.937687 -4003.937686 477430.4224
 3234.641303 -4180.570316 477434.7403
 1895.769339 -4628.554184 477437.801
 645.0565293 -4779.101067 477439.6458
 -645.0565293 -4779.101089 477439.6458
 -1895.769339 -4628.554167 477437.801
 -3234.641303 -4180.570325 477434.7403
 -4003.937687 -4003.937683 477430.4224
 0 0 -0
 0 0 0
 0 0 0
 0 0 0
 1332.82802 -5390.450454 477431.7102
 516.5132818 -5424.524944 477432.9053
 -516.5132818 -5424.524937 477432.9053
 -1332.82802 -5390.450458 477431.7102
 0 0 -0
 0 0 -0
 0 0 -0
 0 0 0
 0 0 0
 0 0 0
 1016.602196 4112.92359 477445.2028
 393.8210815 4137.438901 477445.9109
 -393.8210815 4137.438907 477445.9109
 -1016.602196 4112.923586 477445.2028
 0 0 -0
 0 0 -0
 0 0 -0
 0 0 0
 3056.377424 3056.37742 477444.4349
 2466.212422 3187.187288 477446.9928
 1444.008956 3526.290214 477448.7945
 491.0464611 3639.097544 477449.8792
 -491.0464611 3639.097525 477449.8792
 -1444.008956 3526.290229 477448.7945
 -2466.212422 3187.187281 477446.9928
 -3056.377424 3056.377423 477444.4349
 0 0 -0
 0 0 0
 3187.187275 2466.212435 477446.9928
 2582.793403 2582.793372 477450.0284
 1626.539395 2746.455101 477453.3303
 554.9687376 2829.891533 477455.2911
 -554.9687376 2829.891566 477455.2911
 -1626.539395 2746.455073 477453.3303
 -2582.793403 2582.793391 477450.0284
 -3187.187275 2466.212427 477446.9928
 0 0 -0
 4112.923583 1016.602203 477445.2028
 3526.29024 1444.00893 477448.7945
 2746.455054 1626.539441 477453.3303
 1737.263491 1737.263428 477457.6789
 593.9018502 1790.968667 477460.2717
 -593.9018502 1790.968624 477460.2717
 -1737.26349 1737.263466 477457.6789
 -2746.455054 1626.539413 477453.3303
 -3526.29024 1444.008946 477448.7945
 -4112.923583 1016.602199 477445.2028
 4137.438911 393.8210712 477445.9109
 3639.097511 491.0464936 477449.8792
 2829.891588 554.9686835 477455.2911
 1790.968595 593.9019216 477460.2717
 612.5640269 612.5639457 477463.2141
 -612.5640269 612.5639944 477463.2141
 -1790.968595 593.9018786 477460.2717
 -2829.891588 554.9687162 477455.2911
 -3639.097511 491.0464739 477449.8792
 -4137.438911 393.8210774 477445.9109
 4137.438897 -393.8210712 477445.9109
 3639.097558 -491.0464936 477449.8792
 2829.891511 -554.9686835 477455.2911
 1790.968696 -593.9019216 477460.2717
 612.5639127 -612.5639457 477463.2141
 -612.5639127 -612.5639944 477463.2141
 -1790.968696 -593.9018786 477460.2717
 -2829.891511 -554.9687162 477455.2911
 -3639.097558 -491.0464739 477449.8792
 -4137.438897 -393.8210774 477445.9109
 4112.923592 -1016.602203 477445.2028
 3526.290203 -1444.00893 477448.7945
 2746.45512 -1626.539441 477453.3303
 1737.263402 -1737.263428 477457.6789
 593.9019512 -1790.968667 477460.2717
 -593.9019512 -1790.968624 477460.2717
 -1737.263402 -1737.263466 477457.6789
 -2746.45512 -1626.539413 477453.3303
 -3526.290203 -1444.008946 477448.7945
 -4112.923592 -1016.602199 477445.2028
 0 0 0
 3187.187294 -2466.212435 477446.9928
 2582.793359 -2582.793372 477450.0284
 1626.53946 -2746.455101 477453.3303
 554.9686607 -2829.891533 477455.2911
 -554.9686607 -2829.891566 477455.2911
 -1626.53946 -2746.455073 477453.3303
 -2582.793359 -2582.793391 477450.0284
 -3187.187294 -2466.212427 477446.9928
 0 0 -0
 0 0 0
 3056.377418 -3056.37742 477444.4349
 2466.212441 -3187.187288 477446.9928
 1444.008919 -3526.290214 477448.7945
 491.0465075 -3639.097544 477449.8792
 -491.0465075 -3639.097525 477449.8792
 -1444.008919 -3526.290229 477448.7945
 -2466.212441 -3187.187281 477446.9928
 -3056.377418 -3056.377423 477444.4349
 0 0 -0
 0 0 0
 0 0 0
 0 0 0
 1016.602205 -4112.92359 477445.2028
 393.8210668 -4137.438901 477445.9109
 -393.8210668 -4137.438907 477445.9109
 -1016.602205 -4112.923586 477445.2028
 0 0 -0
 0 0 -0
 0 0 -0
 0 0 0
 0 0 0
 0 0 0
 781.7828123 3162.007192 477452.8896
 302.7418223 3179.846982 477453.3152
 -302.7418223 3179.846979 477453.3152
 -781.7828123 3162.007194 477452.8896
 0 0 -0
 0 0 -0
 0 0 -0
 0 0 0
 2350.794206 2350.79421 477452.4257
 1894.788405 2448.596453 477453.9616
 1108.586594 2707.244298 477455.0378
 376.7903772 2792.44176 477455.6855
 -376.7903772 2792.441769 477455.6855
 -1108.586594 2707.24429 477455.0378
 -1894.788405 2448.596457 477453.9616
 -2350.794206 2350.794209 477452.4257
 0 0 -0
 0 0 0
 2448.596464 1894.788394 477453.9616