# OOMMF OVF 2.0
#
# Segment count: 1
#
# Begin: Segment
# Begin: Header
#
# Title: Oxs_MinDriver::Magnetization
# Desc: Oxs vector field output
# Desc:  MIF source file: F:/Bogdan/UNIC/2022/Master_degree/Simulation_samples/Cylinder0_5000 1.mif
# Desc:  Iteration: 1422, State id: 3090
# Desc:  Stage: 2, Stage iteration: 75
# Desc:  Stage simulation time: 0 s
# Desc:  Total simulation time: -2 s
# meshunit: m
# meshtype: rectangular
# xbase: -8.9999999999999995e-09
# ybase: -8.9999999999999995e-09
# zbase: -8.6999999999999998e-08
# xnodes: 10
# ynodes: 10
# znodes: 88
# xstepsize: 2.0000000000000001e-09
# ystepsize: 2.0000000000000001e-09
# zstepsize: 2.0000000000000001e-09
# xmin: -1e-08
# ymin: -1e-08
# zmin: -8.7999999999999994e-08
# xmax: 1e-08
# ymax: 1e-08
# zmax: 8.800000000000002e-08
# valuedim: 3
# valuelabels: Magnetization_x Magnetization_y Magnetization_z
# valueunits: A/m A/m A/m
#
# End: Header
#
# Begin: Data Text
 0 0 0
 0 0 0
 0 0 0
 9181.724524 34978.06686 476092.5352
 3468.761274 35228.53612 476149.9651
 -3468.761275 35228.53612 476149.9651
 -9181.724523 34978.06687 476092.5352
 0 0 -0
 0 0 -0
 0 0 -0
 0 0 0
 25957.04258 25957.04317 476050.7695
 20686.37962 27088.34239 476245.9099
 12230.39062 29492.00872 476395.3298
 4137.178865 30169.36689 476491.9352
 -4137.178864 30169.3669 476491.9352
 -12230.39062 29492.00871 476395.3298
 -20686.37962 27088.34239 476245.9099
 -25957.04259 25957.04317 476050.7695
 0 0 -0
 0 0 0
 27088.3418 20686.38022 476245.9099
 21406.60294 21406.60355 476503.2906
 13301.73168 22388.63669 476753.2739
 4504.239224 22834.83144 476896.3762
 -4504.239226 22834.83142 476896.3762
 -13301.73167 22388.6367 476753.2739
 -21406.60294 21406.60354 476503.2906
 -27088.3418 20686.38023 476245.9099
 0 0 -0
 34978.06627 9181.72512 476092.5352
 29492.00811 12230.39123 476395.3298
 22388.63611 13301.73227 476753.2739
 13898.72117 13898.72181 477059.2441
 4705.806866 14168.06062 477230.5446
 -4705.806864 14168.06064 477230.5446
 -13898.72118 13898.72179 477059.2441
 -22388.6361 13301.73229 476753.2739
 -29492.00812 12230.39122 476395.3298
 -34978.06627 9181.725123 476092.5352
 35228.53552 3468.761876 476149.9651
 30169.36631 4137.179465 476491.9353
 22834.8308 4504.239853 476896.3762
 14168.06004 4705.807456 477230.5447
 4796.493414 4796.494076 477415.8131
 -4796.493416 4796.494044 477415.8131
 -14168.06003 4705.807485 477230.5446
 -22834.8308 4504.23983 476896.3762
 -30169.36631 4137.179479 476491.9353
 -35228.53552 3468.761871 476149.9651
 35228.53553 -3468.760675 476149.9651
 30169.36628 -4137.178254 476491.9353
 22834.83085 -4504.23863 476896.3762
 14168.05998 -4705.806224 477230.5447
 4796.493485 -4796.49284 477415.8131
 -4796.493483 -4796.492804 477415.8131
 -14168.05998 -4705.806255 477230.5447
 -22834.83084 -4504.238606 476896.3762
 -30169.36629 -4137.178268 476491.9353
 -35228.53553 -3468.76067 476149.9651
 34978.06627 -9181.723926 476092.5353
 29492.00813 -12230.39002 476395.3299
 22388.63607 -13301.73105 476753.2739
 13898.72123 -13898.72059 477059.2441
 4705.806806 -14168.05938 477230.5447
 -4705.806807 -14168.05941 477230.5447
 -13898.72122 -13898.72056 477059.2441
 -22388.63607 -13301.73107 476753.2739
 -29492.00813 -12230.39001 476395.3299
 -34978.06627 -9181.723929 476092.5353
 0 0 0
 27088.34179 -20686.37902 476245.91
 21406.60297 -21406.60235 476503.2907
 13301.73164 -22388.63548 476753.274
 4504.239269 -22834.83023 476896.3762
 -4504.239269 -22834.8302 476896.3762
 -13301.73164 -22388.6355 476753.274
 -21406.60297 -21406.60234 476503.2907
 -27088.34179 -20686.37903 476245.91
 0 0 -0
 0 0 0
 25957.04258 -25957.04199 476050.7696
 20686.37961 -27088.3412 476245.91
 12230.39064 -29492.00753 476395.3299
 4137.17884 -30169.36569 476491.9353
 -4137.17884 -30169.3657 476491.9353
 -12230.39064 -29492.00752 476395.3299
 -20686.37961 -27088.3412 476245.91
 -25957.04258 -25957.04199 476050.7696
 0 0 -0
 0 0 0
 0 0 0
 0 0 0
 9181.724518 -34978.06568 476092.5353
 3468.761282 -35228.53494 476149.9652
 -3468.761282 -35228.53493 476149.9652
 -9181.724518 -34978.06568 476092.5353
 0 0 -0
 0 0 -0
 0 0 -0
 0 0 0
 0 0 0
 0 0 0
 7772.377872 30493.02727 476425.8985
 2996.250301 30722.51427 476465.1308
 -2996.250301 30722.51427 476465.1308
 -7772.377873 30493.02727 476425.8985
 0 0 -0
 0 0 -0
 0 0 -0
 0 0 0
 22592.74531 22592.74585 476393.752
 18220.38294 23653.56343 476529.5352
 10746.38154 26054.53722 476631.459
 3655.316585 26803.30007 476697.0663
 -3655.316587 26803.30005 476697.0663
 -10746.38154 26054.53724 476631.459
 -18220.38295 23653.56342 476529.5352
 -22592.7453 22592.74586 476393.752
 0 0 -0
 0 0 0
 23653.56286 18220.38351 476529.5352
 19016.85969 19016.86021 476705.9779
 11908.22839 20064.22655 476893.5858
 4048.208938 20560.94364 477003.9108
 -4048.208935 20560.94368 477003.9108
 -11908.22839 20064.22651 476893.5858
 -19016.85968 19016.86024 476705.9779
 -23653.56286 18220.3835 476529.5352
 0 0 -0
 30493.02671 7772.378433 476425.8985
 26054.5367 10746.38209 476631.459
 20064.22592 11908.229 476893.5858
 12559.39808 12559.39857 477133.5183
 4268.116662 12856.30978 477271.7986
 -4268.116667 12856.30971 477271.7986
 -12559.39807 12559.39863 477133.5183
 -20064.22593 11908.22896 476893.5858
 -26054.53669 10746.38211 476631.459
 -30493.02671 7772.378426 476425.8985
 30722.51373 2996.250856 476465.1309
 26803.29946 3655.317173 476697.0664
 20560.94315 4048.209463 477003.9108
 12856.3091 4268.117311 477271.7987
 4367.56896 4367.569426 477424.0463
 -4367.568956 4367.569503 477424.0463
 -12856.30911 4268.117241 477271.7987
 -20560.94314 4048.209518 477003.9108
 -26803.29947 3655.317139 476697.0664
 -30722.51372 2996.250867 476465.1309
 30722.5137 -2996.249734 476465.1309
 26803.29954 -3655.316042 476697.0664
 20560.94302 -4048.208322 477003.9108
 12856.30927 -4268.116162 477271.7987
 4367.568774 -4367.568268 477424.0463
 -4367.568778 -4367.568354 477424.0463
 -12856.30926 -4268.116087 477271.7987
 -20560.94303 -4048.208379 477003.9108
 -26803.29953 -3655.316006 476697.0664
 -30722.51371 -2996.249746 476465.1309
 30493.02672 -7772.377317 476425.8985
 26054.53664 -10746.38096 476631.459
 20064.22602 -11908.22787 476893.5859
 12559.39794 -12559.39743 477133.5184
 4268.116823 -12856.30864 477271.7987
 -4268.116821 -12856.30856 477271.7987
 -12559.39794 -12559.39749 477133.5184
 -20064.22602 -11908.22782 476893.5859
 -26054.53664 -10746.38099 476631.459
 -30493.02672 -7772.37731 476425.8985
 0 0 0
 23653.56289 -18220.38239 476529.5352
 19016.85962 -19016.85909 476705.978
 11908.22849 -20064.22542 476893.5859
 4048.208821 -20560.9425 477003.9108
 -4048.208821 -20560.94255 477003.9108
 -11908.22849 -20064.22537 476893.5859
 -19016.85962 -19016.85912 476705.978
 -23653.56289 -18220.38238 476529.5352
 0 0 -0
 0 0 0
 22592.74529 -22592.74474 476393.7521
 18220.38297 -23653.56232 476529.5352
 10746.38149 -26054.5361 476631.459
 3655.316654 -26803.29895 476697.0664
 -3655.316654 -26803.29892 476697.0664
 -10746.38149 -26054.53613 476631.459
 -18220.38297 -23653.56231 476529.5352
 -22592.74529 -22592.74475 476393.7521
 0 0 -0
 0 0 0
 0 0 0
 0 0 0
 7772.377884 -30493.02616 476425.8985
 2996.25028 -30722.51316 476465.1309
 -2996.25028 -30722.51317 476465.1309
 -7772.377884 -30493.02616 476425.8985
 0 0 -0
 0 0 -0
 0 0 -0
 0 0 0
 0 0 0
 0 0 0
 6275.724362 25059.8966 476764.6046
 2432.705732 25253.1435 476789.5049
 -2432.705733 25253.14349 476789.5049
 -6275.72436 25059.8966 476764.6046
 0 0 -0
 0 0 -0
 0 0 -0
 0 0 0
 18561.41098 18561.41147 476741.8791
 15037.89056 19464.6404 476830.0126
 8855.004322 21550.91556 476895.1858
 3017.342917 22243.45753 476936.0497
 -3017.342914 22243.45757 476936.0497
 -8855.004329 21550.91553 476895.1858
 -15037.89055 19464.64042 476830.0126
 -18561.41099 18561.41147 476741.8791
 0 0 -0
 0 0 0
 19464.63994 15037.89103 476830.0126
 15782.35895 15782.35949 476942.0359
 9939.610473 16764.63326 477066.0568
 3389.792674 17249.85505 477140.2552
 -3389.792678 17249.855 477140.2552
 -9939.610462 16764.6333 477066.0568
 -15782.35896 15782.35946 476942.0359
 -19464.63993 15037.89105 476830.0126
 0 0 -0
 25059.89613 6275.724844 476764.6046
 21550.91501 8855.004842 476895.1858
 16764.63285 9939.610909 477066.0568
 10573.78366 10573.78426 477229.7785
 3607.134325 10871.09604 477326.5959
 -3607.13432 10871.09611 477326.5959
 -10573.78367 10573.7842 477229.7785
 -16764.63283 9939.610957 477066.0568
 -21550.91502 8855.004813 476895.1858
 -25059.89613 6275.724851 476764.6046
 25253.14299 2432.706227 476789.5049
 22243.45712 3017.343388 476936.0497
 17249.85444 3389.793227 477140.2552
 10871.09567 3607.134726 477326.5959
 3707.704368 3707.705014 477435.2073
 -3707.704373 3707.704932 477435.2073
 -10871.09566 3607.1348 477326.5959
 -17249.85446 3389.793169 477140.2552
 -22243.45711 3017.343425 476936.0497
 -25253.14299 2432.706215 476789.5049
 25253.14302 -2432.705245 476789.5049
 22243.45701 -3017.342401 476936.0498
 17249.85462 -3389.79223 477140.2552
 10871.09545 -3607.133721 477326.5959
 3707.704607 -3707.704009 477435.2073
 -3707.704603 -3707.703922 477435.2073
 -10871.09546 -3607.133798 477326.5959
 -17249.85461 -3389.792172 477140.2552
 -22243.45702 -3017.342437 476936.0498
 -25253.14302 -2432.705233 476789.5049
 25059.8961 -6275.723868 476764.6046
 21550.9151 -8855.003856 476895.1858
 16764.6327 -9939.609918 477066.0568
 10573.78385 -10573.78326 477229.7785
 3607.134118 -10871.09503 477326.5959
 -3607.134121 -10871.09511 477326.5959
 -10573.78384 -10573.7832 477229.7785
 -16764.63271 -9939.609966 477066.0568
 -21550.91509 -8855.003828 476895.1858
 -25059.89611 -6275.723875 476764.6046
 0 0 0
 19464.6399 -15037.89005 476830.0126
 15782.35904 -15782.35851 476942.0359
 9939.610337 -16764.63227 477066.0568
 3389.792828 -17249.85406 477140.2552
 -3389.792827 -17249.85401 477140.2552
 -9939.61034 -16764.63231 477066.0568
 -15782.35904 -15782.35848 476942.0359
 -19464.6399 -15037.89006 476830.0126
 0 0 -0
 0 0 0
 18561.41099 -18561.4105 476741.8792
 15037.89052 -19464.63943 476830.0126
 8855.004398 -21550.91458 476895.1858
 3017.342826 -22243.45656 476936.0498
 -3017.342826 -22243.45658 476936.0498
 -8855.004397 -21550.91456 476895.1858
 -15037.89052 -19464.63944 476830.0126
 -18561.41099 -18561.4105 476741.8792
 0 0 -0
 0 0 0
 0 0 0
 0 0 0
 6275.724342 -25059.89563 476764.6046
 2432.705759 -25253.14253 476789.505
 -2432.705759 -25253.14252 476789.505
 -6275.724342 -25059.89563 476764.6046
 0 0 -0
 0 0 -0
 0 0 -0
 0 0 0
 0 0 0
 0 0 0
 4939.165038 19926.24093 477022.4532
 1916.863087 20078.00132 477037.8086
 -1916.863086 20078.00133 477037.8086
 -4939.165039 19926.24092 477022.4532
 0 0 -0
 0 0 -0
 0 0 -0
 0 0 0
 14760.68937 14760.68975 477007.4584
 11971.60856 15481.23427 477062.7666
 7038.690536 17173.07682 477103.1477
 2398.773443 17749.52359 477127.9405
 -2398.773446 17749.52356 477127.9405
 -7038.69053 17173.07685 477103.1477
 -11971.60856 15481.23426 477062.7666
 -14760.68937 14760.68976 477007.4584
 0 0 -0
 0 0 0
 15481.23386 11971.60897 477062.7666
 12593.56366 12593.56401 477131.7172
 7953.006933 13424.41396 477208.9753
 2716.869866 13844.90716 477255.496
 -2716.869862 13844.90721 477255.496
 -7953.006942 13424.41392 477208.9753
 -12593.56365 12593.56404 477131.7172
 -15481.23386 11971.60895 477062.7666
 0 0 -0
 19926.24052 4939.165434 477022.4532
 17173.07648 7038.690913 477103.1477
 13424.41348 7953.00739 477208.9753
 8504.797563 8504.797862 477312.4848
 2908.597487 8769.444453 477374.5995
 -2908.597492 8769.444395 477374.5995
 -8504.797552 8504.797914 477312.4848
 -13424.41349 7953.00735 477208.9753
 -17173.07647 7038.690937 477103.1477
 -19926.24053 4939.165428 477022.4532
 20078.00095 1916.863484 477037.8086
 17749.52313 2398.773856 477127.9405
 13844.90686 2716.870209 477255.496
 8769.443916 2908.598004 477374.5995
 2999.264611 2999.264877 477445.1593
 -2999.264607 2999.264936 477445.1593
 -8769.443926 2908.597951 477374.5995
 -13844.90685 2716.870251 477255.496
 -17749.52313 2398.77383 477127.9405
 -20078.00095 1916.863492 477037.8086
 20078.00091 -1916.862691 477037.8086
 17749.52323 -2398.773056 477127.9405
 13844.90669 -2716.869408 477255.496
 8769.444126 -2908.597192 477374.5995
 2999.264387 -2999.264067 477445.1593
 -2999.264389 -2999.264123 477445.1593
 -8769.444119 -2908.597144 477374.5995
 -13844.9067 -2716.869445 477255.496
 -17749.52323 -2398.773033 477127.9405
 -20078.00091 -1916.862699 477037.8086
 19926.24054 -4939.164643 477022.4532
 17173.0764 -7038.690123 477103.1477
 13424.41362 -7953.006581 477208.9753
 8504.79738 -8504.797066 477312.4848
 2908.597686 -8769.443637 477374.5995
 -2908.597684 -8769.443594 477374.5995
 -8504.797384 -8504.797103 477312.4848
 -13424.41362 -7953.006554 477208.9753
 -17173.0764 -7038.690138 477103.1477
 -19926.24054 -4939.164639 477022.4532
 0 0 0
 15481.23389 -11971.60817 477062.7666
 12593.56356 -12593.56323 477131.7173
 7953.007068 -13424.41315 477208.9753
 2716.869715 -13844.90637 477255.496
 -2716.869716 -13844.90639 477255.496
 -7953.007066 -13424.41313 477208.9753
 -12593.56356 -12593.56324 477131.7173
 -15481.23389 -11971.60816 477062.7666
 0 0 -0
 0 0 0
 14760.68935 -14760.68897 477007.4584
 11971.60859 -15481.23348 477062.7666
 7038.690459 -17173.07605 477103.1477
 2398.773535 -17749.52279 477127.9405
 -2398.773535 -17749.52278 477127.9405
 -7038.69046 -17173.07605 477103.1477
 -11971.60859 -15481.23347 477062.7666
 -14760.68935 -14760.68897 477007.4584
 0 0 -0
 0 0 0
 0 0 0
 0 0 0
 4939.165054 -19926.24014 477022.4532
 1916.863057 -20078.00054 477037.8086
 -1916.863057 -20078.00054 477037.8086
 -4939.165054 -19926.24014 477022.4532
 0 0 -0
 0 0 -0
 0 0 -0
 0 0 0
 0 0 0
 0 0 0
 3825.038472 15529.18913 477196.0652
 1484.677912 15643.13583 477205.3639
 -1484.677912 15643.13582 477205.3639
 -3825.038471 15529.18914 477196.0652
 0 0 -0
 0 0 -0
 0 0 -0
 0 0 0
 11506.23292 11506.2332 477186.6349
 9329.028546 12059.53701 477220.5026
 5476.480322 13384.09593 477244.9533
 1865.561325 13838.50611 477259.7686
 -1865.561323 13838.50615 477259.7686
 -5476.480325 13384.0959 477244.9533
 -9329.028544 12059.53703 477220.5026
 -11506.23292 11506.2332 477186.6349
 0 0 -0
 0 0 0
 12059.53675 9329.028821 477220.5026
 9817.576897 9817.577214 477262.0891
 6204.41206 10478.74547 477308.6763
 2120.70059 10817.32384 477336.7359
 -2120.700592 10817.32379 477336.7359
 -6204.412054 10478.74551 477308.6763
 -9817.576902 9817.577185 477262.0891
 -12059.53675 9329.028833 477220.5026
 0 0 -0
 15529.18886 3825.038753 477196.0652
 13384.09561 5476.48062 477244.9533
 10478.74525 6204.412299 477308.6763
 6650.815281 6650.815656 477371.3487
 2277.199816 6867.731524 477409.1745
 -2277.199814 6867.731571 477409.1745
 -6650.815287 6650.815615 477371.3487
 -10478.74524 6204.41233 477308.6763
 -13384.09561 5476.480602 477244.9533
 -15529.18886 3825.038757 477196.0652
 15643.13553 1484.678197 477205.3639
 13838.50588 1865.561596 477259.7686
 10817.32347 2120.700933 477336.7359
 6867.731338 2277.20001 477409.1745
 2352.21632 2352.21672 477452.4117
 -2352.216322 2352.216682 477452.4117
 -6867.731333 2277.200043 477409.1745
 -10817.32347 2120.700907 477336.7359
 -13838.50588 1865.561612 477259.7686
 -15643.13553 1484.678192 477205.3639
 15643.13556 -1484.677627 477205.3639
 13838.5058 -1865.561028 477259.7686
 10817.32359 -2120.700351 477336.7359
 6867.731183 -2277.199437 477409.1745
 2352.216484 -2352.216134 477452.4117
 -2352.216483 -2352.216106 477452.4117
 -6867.731187 -2277.19946 477409.1745
 -10817.32359 -2120.700335 477336.7359
 -13838.5058 -1865.561037 477259.7686
 -15643.13556 -1484.677624 477205.3639
 15529.18884 -3825.038188 477196.0652
 13384.09567 -5476.480041 477244.9533
 10478.74514 -6204.411741 477308.6763
 6650.81542 -6650.815061 477371.3488
 2277.199666 -6867.730963 477409.1745
 -2277.199666 -6867.730978 477409.1745
 -6650.815419 -6650.81505 477371.3488
 -10478.74514 -6204.411748 477308.6763
 -13384.09567 -5476.480037 477244.9533
 -15529.18884 -3825.038189 477196.0652
 0 0 0
 12059.53671 -9329.028259 477220.5026
 9817.576973 -9817.576626 477262.0891
 6204.411952 -10478.74492 477308.6763
 2120.700712 -10817.32324 477336.7359
 -2120.700711 -10817.32324 477336.7359
 -6204.411953 -10478.74492 477308.6763
 -9817.576972 -9817.576627 477262.0891
 -12059.53671 -9329.028259 477220.5026
 0 0 -0
 0 0 0
 11506.23293 -11506.23264 477186.6349
 9329.028511 -12059.53646 477220.5026
 5476.480386 -13384.09534 477244.9533
 1865.561246 -13838.50557 477259.7686
 -1865.561246 -13838.50556 477259.7686
 -5476.480385 -13384.09535 477244.9533
 -9329.028512 -12059.53646 477220.5026
 -11506.23293 -11506.23264 477186.6349
 0 0 -0
 0 0 0
 0 0 0
 0 0 0
 3825.038454 -15529.18857 477196.0652
 1484.677937 -15643.13526 477205.3639
 -1484.677937 -15643.13526 477205.3639
 -3825.038454 -15529.18857 477196.0652
 0 0 -0
 0 0 -0
 0 0 -0
 0 0 0
 0 0 0
 0 0 0
 2933.622637 11958.44562 477305.2071
 1138.520938 12041.9216 477310.7658
 -1138.520937 12041.92161 477310.7658
 -2933.622638 11958.44561 477305.2071
 0 0 -0
 0 0 -0
 0 0 -0
 0 0 0
 8862.961039 8862.961193 477299.4523
 7179.656064 9279.229552 477319.8296
 4208.446858 10297.21044 477334.3982
 1432.698467 10645.58353 477343.1577
 -1432.698469 10645.58349 477343.1577
 -4208.446856 10297.21047 477334.3982
 -7179.656066 9279.229539 477319.8296
 -8862.961038 8862.961198 477299.4523
 0 0 -0
 0 0 0
 9279.229384 7179.656228 477319.8296
 7551.185148 7551.18529 477344.5616
 4770.357491 8060.063108 477372.1299
 1630.343175 8321.752869 477388.6904
 -1630.343174 8321.75291 477388.6904
 -4770.357494 8060.063073 477372.1299
 -7551.185145 7551.185314 477344.5616
 -9279.229384 7179.656218 477319.8296
 0 0 -0
 11958.44545 2933.622796 477305.2071
 10297.2103 4208.447014 477334.3982
 8060.062914 4770.357672 477372.1299
 5116.713362 5116.713484 477409.1639
 1752.352421 5285.928158 477431.5234
 -1752.352422 5285.92812 477431.5234
 -5116.713359 5116.713518 477409.1639
 -8060.062917 4770.357646 477372.1299
 -10297.2103 4208.447028 477334.3982
 -11958.44545 2933.622793 477305.2071
 12041.92145 1138.521098 477310.7658
 10645.58333 1432.698633 477343.1577
 8321.752755 1630.343316 477388.6904
 5285.927942 1752.352624 477431.5234
 1811.192859 1811.192967 477457.1294
 -1811.192857 1811.192997 477457.1294
 -5285.927945 1752.352598 477431.5234
 -8321.752752 1630.343336 477388.6904
 -10645.58333 1432.698621 477343.1577
 -12041.92145 1138.521101 477310.7658
 12041.92143 -1138.520779 477310.7658
 10645.58337 -1432.698307 477343.1577
 8321.752693 -1630.342998 477388.6904
 5285.928017 -1752.352293 477431.5234
 1811.19278 -1811.192645 477457.1294
 -1811.192781 -1811.192666 477457.1294
 -5285.928014 -1752.352276 477431.5234
 -8321.752696 -1630.34301 477388.6904
 -10645.58337 -1432.698301 477343.1577
 -12041.92143 -1138.520781 477310.7658
 11958.44546 -2933.622476 477305.2071
 10297.21027 -4208.446702 477334.3982
 8060.062972 -4770.357336 477372.1299
 5116.713288 -5116.713176 477409.1639
 1752.352501 -5285.927818 477431.5234
 -1752.3525 -5285.927808 477431.5234
 -5116.71329 -5116.713183 477409.1639
 -8060.06297 -4770.357333 477372.1299
 -10297.21027 -4208.446703 477334.3982
 -11958.44546 -2933.622475 477305.2071
 0 0 0
 9279.229401 -7179.655901 477319.8296
 7551.185102 -7551.184986 477344.5616
 4770.357557 -8060.062765 477372.1299
 1630.343101 -8321.75257 477388.6904
 -1630.343102 -8321.752568 477388.6904
 -4770.357555 -8060.062767 477372.1299
 -7551.185104 -7551.184984 477344.5616
 -9279.229401 -7179.655902 477319.8296
 0 0 -0
 0 0 0
 8862.961028 -8862.960879 477299.4523
 7179.656085 -9279.229226 477319.8296
 4208.446814 -10297.21014 477334.3982
 1432.69852 -10645.58319 477343.1577
 -1432.69852 -10645.58319 477343.1577
 -4208.446816 -10297.21014 477334.3982
 -7179.656084 -9279.229228 477319.8296
 -8862.961029 -8862.960878 477299.4523
 0 0 -0
 0 0 0
 0 0 0
 0 0 0
 2933.622648 -11958.4453 477305.2071
 1138.520919 -12041.92129 477310.7659
 -1138.52092 -12041.92128 477310.7659
 -2933.622647 -11958.4453 477305.2071
 0 0 -0
 0 0 -0
 0 0 -0
 0 0 0
 0 0 0
 0 0 0
 2239.479321 9152.554623 477371.0158
 868.9281107 9213.05832 477374.3142
 -868.9281112 9213.058314 477374.3142
 -2239.479321 9152.554627 477371.0158
 0 0 -0
 0 0 -0
 0 0 -0
 0 0 0
 6785.373618 6785.373647 477367.5614
 5490.898707 7095.678203 477379.6945
 3214.248458 7871.050751 477388.2974
 1093.50648 8134.631302 477393.4471
 -1093.506479 8134.631319 477393.4471
 -3214.248461 7871.050737 477388.2974
 -5490.898706 7095.67821 477379.6945
 -6785.373619 6785.373645 477367.5614
 0 0 -0
 0 0 0
 7095.678174 5490.898738 477379.6945
 5769.116163 5769.116184 477394.2877
 3641.348344 6154.334248 477410.4482
 1243.918488 6352.431592 477420.1196
 -1243.91849 6352.43157 477420.1196
 -3641.348341 6154.334268 477410.4482
 -5769.116166 5769.11617 477394.2877
 -7095.678174 5490.898744 477379.6945
 0 0 -0
 9152.554596 2239.479351 477371.0158
 7871.050725 3214.248478 477388.2974
 6154.334209 3641.348395 477410.4482
 3904.2829 3904.282904 477432.0731
 1336.732579 4032.815646 477445.0972
 -1336.732578 4032.81567 477445.0972
 -3904.282904 3904.282882 477432.0731
 -6154.334205 3641.348411 477410.4482
 -7871.050725 3214.248469 477388.2974
 -9152.554596 2239.479354 477371.0158
 9213.05829 868.9281348 477374.3142
 8134.631278 1093.506524 477393.4471
 6352.431563 1243.918485 477420.1196
 4032.815607 1336.732646 477445.0972
 1381.538386 1381.538398 477460.0025
 -1381.538388 1381.538374 477460.0025
 -4032.815602 1336.732667 477445.0972
 -6352.431569 1243.918469 477420.1196
 -8134.631276 1093.506533 477393.4471
 -9213.05829 868.9281319 477374.3142
 9213.05829 -868.9280774 477374.3142
 8134.631277 -1093.506468 477393.4471
 6352.431561 -1243.918425 477420.1196
 4032.815619 -1336.732589 477445.0972
 1381.538362 -1381.538338 477460.0025
 -1381.538359 -1381.538315 477460.0025
 -4032.815626 -1336.732608 477445.0972
 -6352.431555 -1243.918412 477420.1196
 -8134.631279 -1093.506475 477393.4471
 -9213.05829 -868.9280751 477374.3142
 9152.554596 -2239.479296 477371.0158
 7871.050729 -3214.248418 477388.2974
 6154.334204 -3641.348343 477410.4482
 3904.282901 -3904.282839 477432.0731
 1336.732585 -4032.815592 477445.0972
 -1336.732587 -4032.815609 477445.0972
 -3904.282896 -3904.282826 477432.0731
 -6154.33421 -3641.348352 477410.4482
 -7871.050727 -3214.248414 477388.2974
 -9152.554596 -2239.479297 477371.0158
 0 0 0
 7095.67817 -5490.898685 477379.6945
 5769.116175 -5769.11612 477394.2877
 3641.34833 -6154.334202 477410.4482
 1243.918501 -6352.431526 477420.1196
 -1243.918499 -6352.431518 477420.1196
 -3641.348334 -6154.334208 477410.4482
 -5769.11617 -5769.116116 477394.2877
 -7095.678172 -5490.898686 477379.6945
 0 0 -0
 0 0 0
 6785.373622 -6785.37359 477367.5614
 5490.8987 -7095.678153 477379.6945
 3214.248475 -7871.050686 477388.2974
 1093.506463 -8134.631256 477393.4471
 -1093.506465 -8134.631257 477393.4471
 -3214.248472 -7871.050685 477388.2974
 -5490.898702 -7095.678153 477379.6945
 -6785.373621 -6785.37359 477367.5614
 0 0 -0
 0 0 0
 0 0 0
 0 0 0
 2239.479317 -9152.554571 477371.0158
 868.9281178 -9213.058261 477374.3142
 -868.9281173 -9213.058262 477374.3142
 -2239.479318 -9152.554571 477371.0158
 0 0 -0
 0 0 -0
 0 0 -0
 0 0 0
 0 0 0
 0 0 0
 1708.674255 6994.000121 477409.7147
 662.7937972 7037.792105 477411.6688
 -662.7937966 7037.792103 477411.6688
 -1708.674256 6994.000122 477409.7147
 0 0 -0
 0 0 -0
 0 0 -0
 0 0 0
 5186.694489 5186.694391 477407.6536
 4192.740728 5417.601996 477414.8529
 2451.530189 6006.573372 477419.9225
 833.4988992 6205.134059 477422.9497
 -833.498901 6205.134063 477422.9497
 -2451.530186 6006.573369 477419.9225
 -4192.74073 5417.601996 477414.8529
 -5186.694488 5186.694391 477407.6536
 0 0 -0
 0 0 0
 5417.602116 4192.740608 477414.8529
 4400.034123 4400.03406 477423.4501
 2774.250187 4689.839335 477432.9065
 947.1463671 4838.545678 477438.5434
 -947.1463649 4838.545675 477438.5434
 -2774.250192 4689.839336 477432.9065
 -4400.034118 4400.034061 477423.4501
 -5417.602118 4192.740607 477414.8529
 0 0 -0
 6994.000232 1708.674145 477409.7147
 6006.573447 2451.530118 477419.9225
 4689.839501 2774.250009 477432.9065
 2972.032565 2972.032554 477445.4999
 1016.991811 3068.511262 477453.0566
 -1016.991813 3068.511258 477453.0566
 -2972.032559 2972.032558 477445.4999
 -4689.839508 2774.250004 477432.9065
 -6006.573445 2451.530122 477419.9225
 -6994.000233 1708.674143 477409.7147
 7037.792204 662.7937023 477411.6688
 6205.13419 833.4987498 477422.9497
 4838.545736 947.1463537 477438.5434
 3068.511439 1016.991589 477453.0566
 1050.644004 1050.643986 477461.6881
 -1050.644001 1050.643999 477461.6881
 -3068.511447 1016.991578 477453.0566
 -4838.545727 947.1463628 477438.5434
 -6205.134194 833.4987433 477422.9497
 -7037.792203 662.7937046 477411.6688
 7037.792212 -662.7939125 477411.6688
 6205.134163 -833.4989613 477422.9497
 4838.545791 -947.1465626 477438.5434
 3068.511349 -1016.991804 477453.0566
 1050.644122 -1050.644194 477461.6881
 -1050.644126 -1050.644214 477461.6881
 -3068.511339 -1016.991787 477453.0566
 -4838.545801 -947.1465749 477438.5434
 -6205.134158 -833.4989534 477422.9497
 -7037.792214 -662.7939152 477411.6688
 6994.000229 -1708.674355 477409.7147
 6006.573468 -2451.530327 477419.9225
 4689.839462 -2774.250226 477432.9065
 2972.032635 -2972.032758 477445.4999
 1016.991719 -3068.511482 477453.0566
 -1016.991716 -3068.511463 477453.0566
 -2972.032643 -2972.032774 477445.4999
 -4689.839453 -2774.250214 477432.9065
 -6006.573472 -2451.530334 477419.9225
 -6994.000229 -1708.674353 477409.7147
 0 0 0
 5417.602111 -4192.740821 477414.8529
 4400.034146 -4400.034268 477423.4501
 2774.250148 -4689.839554 477432.9065
 947.1464221 -4838.545882 477438.5434
 -947.1464245 -4838.545895 477438.5434
 -2774.250142 -4689.839543 477432.9065
 -4400.034152 -4400.034276 477423.4501
 -5417.602109 -4192.740818 477414.8529
 0 0 -0
 0 0 0
 5186.694496 -5186.694602 477407.6536
 4192.740724 -5417.602208 477414.8529
 2451.530207 -6006.57358 477419.9225
 833.4988752 -6205.134277 477422.9497
 -833.4988734 -6205.13427 477422.9497
 -2451.530211 -6006.573586 477419.9225
 -4192.740721 -5417.602205 477414.8529
 -5186.694497 -5186.694603 477407.6536
 0 0 -0
 0 0 0
 0 0 0
 0 0 0
 1708.674253 -6994.000335 477409.7147
 662.7938042 -7037.792316 477411.6688
 -662.7938048 -7037.792317 477411.6688
 -1708.674252 -6994.000334 477409.7147
 0 0 -0
 0 0 -0
 0 0 -0
 0 0 0
 0 0 0
 0 0 0
 1307.470357 5355.727741 477432.1711
 507.0197744 5387.580334 477433.3338
 -507.019775 5387.58034 477433.3338
 -1307.470357 5355.727738 477432.1711
 0 0 -0
 0 0 -0
 0 0 -0
 0 0 0
 3973.046951 3973.046709 477430.9386
 3208.425855 4145.453406 477435.2234
 1874.246151 4593.61169 477438.2235
 636.8736663 4743.407041 477440.0128
 -636.8736645 4743.407028 477440.0128
 -1874.246155 4593.6117 477438.2235
 -3208.425853 4145.453402 477435.2234
 -3973.046952 3973.04671 477430.9386
 0 0 -0
 0 0 0
 4145.453616 3208.425646 477435.2234
 3363.128577 3363.12828 477440.3104
 2118.185593 3581.269615 477445.8703
 722.7145113 3692.846938 477449.172
 -722.7145136 3692.846949 477449.172
 -2118.185587 3581.269606 477445.8703
 -3363.128582 3363.128284 477440.3104
 -4145.453614 3208.425645 477435.2234
 0 0 -0
 5355.727969 1307.470136 477432.1711
 4593.611968 1874.245864 477438.2235
 3581.269772 2118.185449 477445.8703
 2266.801489 2266.801139 477453.238
 775.1695687 2339.046626 477457.6413
 -775.1695664 2339.046626 477457.6413
 -2266.801495 2266.801139 477453.238
 -3581.269766 2118.185451 477445.8703
 -4593.611971 1874.245861 477438.2235
 -5355.727969 1307.470137 477432.1711
 5387.580582 507.0195194 477433.3338
 4743.407242 636.873497 477440.0128
 3692.847241 722.7141591 477449.172
 2339.046771 775.1694662 477457.6413
 800.3571117 800.3567612 477462.6584
 -800.3571144 800.3567498 477462.6584
 -2339.046765 775.1694763 477457.6413
 -3692.847248 722.7141503 477449.172
 -4743.407239 636.8735041 477440.0128
 -5387.580582 507.0195166 477433.3338
 5387.580571 -507.0199927 477433.3338
 4743.407284 -636.873969 477440.0128
 3692.847159 -722.7146376 477449.172
 2339.046906 -775.1699386 477457.6413
 800.35694 -800.3572415 477462.6584
 -800.3569373 -800.3572227 477462.6584
 -2339.046913 -775.1699553 477457.6413
 -3692.847151 -722.7146237 477449.172
 -4743.407287 -636.8739788 477440.0128
 -5387.580571 -507.0199892 477433.3338
 5355.727979 -1307.470606 477432.1711
 4593.611937 -1874.246341 477438.2235
 3581.269842 -2118.185917 477445.8703
 2266.80138 -2266.801624 477453.238
 775.1697113 -2339.047093 477457.6413
 -775.1697135 -2339.047112 477457.6413
 -2266.801374 -2266.801606 477453.238
 -3581.269848 -2118.185931 477445.8703
 -4593.611935 -1874.246332 477438.2235
 -5355.727979 -1307.470608 477432.1711
 0 0 0
 4145.453636 -3208.426118 477435.2234
 3363.128537 -3363.128762 477440.3104
 2118.185669 -3581.270079 477445.8703
 722.7144137 -3692.847426 477449.172
 -722.7144119 -3692.847412 477449.172
 -2118.185674 -3581.270092 477445.8703
 -3363.128533 -3363.128752 477440.3104
 -4145.453638 -3208.426123 477435.2234
 0 0 -0
 0 0 0
 3973.046955 -3973.047184 477430.9386
 3208.425877 -4145.453876 477435.2234
 1874.246114 -4593.612174 477438.2235
 636.8737207 -4743.407506 477440.0127
 -636.8737221 -4743.407514 477440.0127
 -1874.246111 -4593.612167 477438.2235
 -3208.425879 -4145.453879 477435.2234
 -3973.046954 -3973.047183 477430.9386
 0 0 -0
 0 0 0
 0 0 0
 0 0 0
 1307.47037 -5355.728216 477432.1711
 507.0197598 -5387.580813 477433.3338
 -507.0197594 -5387.580811 477433.3338
 -1307.47037 -5355.728217 477432.1711
 0 0 -0
 0 0 -0
 0 0 -0
 0 0 0
 0 0 0
 0 0 0
 1006.220084 4122.10353 477445.1456
 390.0829728 4145.487632 477445.8441
 -390.0829726 4145.487631 477445.8441
 -1006.220084 4122.103531 477445.1456
 0 0 -0
 0 0 -0
 0 0 -0
 0 0 0
 3058.939073 3058.938726 477444.4021
 2467.947638 3188.574689 477446.9746
 1440.641236 3531.332596 477448.7674
 489.3043901 3644.957566 477449.8363
 -489.3043909 3644.957564 477449.8363
 -1440.641235 3531.332597 477448.7674
 -2467.947639 3188.574688 477446.9746
 -3058.939073 3058.938727 477444.4021
 0 0 -0
 0 0 0