# OOMMF OVF 2.0
#
# Segment count: 1
#
# Begin: Segment
# Begin: Header
#
# Title: Oxs_MinDriver::Magnetization
# Desc: Oxs vector field output
# Desc:  MIF source file: F:/Bogdan/UNIC/2022/Master_degree/Simulation_samples/Cylinder0_5000 1.mif
# Desc:  Iteration: 1346, State id: 2934
# Desc:  Stage: 1, Stage iteration: 557
# Desc:  Stage simulation time: 0 s
# Desc:  Total simulation time: -2 s
# meshunit: m
# meshtype: rectangular
# xbase: -8.9999999999999995e-09
# ybase: -8.9999999999999995e-09
# zbase: -8.6999999999999998e-08
# xnodes: 10
# ynodes: 10
# znodes: 88
# xstepsize: 2.0000000000000001e-09
# ystepsize: 2.0000000000000001e-09
# zstepsize: 2.0000000000000001e-09
# xmin: -1e-08
# ymin: -1e-08
# zmin: -8.7999999999999994e-08
# xmax: 1e-08
# ymax: 1e-08
# zmax: 8.800000000000002e-08
# valuedim: 3
# valuelabels: Magnetization_x Magnetization_y Magnetization_z
# valueunits: A/m A/m A/m
#
# End: Header
#
# Begin: Data Text
 0 0 0
 0 0 0
 0 0 0
 9624.234217 36834.62159 475943.753
 3641.069489 37101.97251 476006.3629
 -3641.069489 37101.97251 476006.3629
 -9624.23422 36834.62159 475943.753
 0 0 -0
 0 0 -0
 0 0 -0
 0 0 0
 27323.34166 27323.35302 475897.8259
 21800.08692 28529.08776 476112.0862
 12882.16137 31100.48837 476275.8453
 4358.979464 31837.10757 476381.4324
 -4358.979463 31837.10756 476381.4324
 -12882.16137 31100.48838 476275.8453
 -21800.08692 28529.08775 476112.0862
 -27323.34167 27323.35302 475897.8259
 0 0 -0
 0 0 0
 28529.07588 21800.09617 476112.0865
 22585.85916 22585.86951 476394.4046
 14048.74469 23654.77728 476670.6993
 4759.825215 24145.89792 476829.3101
 -4759.825217 24145.89795 476829.3101
 -14048.74469 23654.77726 476670.6993
 -22585.85917 22585.86953 476394.4046
 -28529.07588 21800.09616 476112.0865
 0 0 -0
 36834.60887 9624.241363 475943.7539
 31100.4765 12882.16963 476275.8459
 23654.76676 14048.75408 476670.6996
 14705.24765 14705.25738 477010.8829
 4982.461671 15003.86101 477202.1904
 -4982.46167 15003.86099 477202.1904
 -14705.24767 14705.25741 477010.8829
 -23654.76674 14048.75407 476670.6996
 -31100.47652 12882.16964 476275.8459
 -36834.60886 9624.24136 475943.7539
 37101.95984 3641.075796 476006.3639
 31837.09554 4358.985908 476381.4332
 24145.88682 4759.83253 476829.3106
 15003.85078 4982.468859 477202.1907
 5083.373507 5083.380846 477409.8762
 -5083.373508 5083.38087 477409.8762
 -15003.85077 4982.468844 477202.1907
 -24145.88683 4759.832549 476829.3106
 -31837.09553 4358.985892 476381.4332
 -37101.95985 3641.075796 476006.3639
 37101.96006 -3641.06486 476006.3639
 31837.09577 -4358.97493 476381.4333
 24145.88702 -4759.821 476829.3107
 15003.85093 -4982.457233 477202.1908
 5083.373585 -5083.368851 477409.8763
 -5083.373584 -5083.368883 477409.8763
 -15003.85093 -4982.457204 477202.1908
 -24145.88702 -4759.821016 476829.3107
 -31837.09578 -4358.974912 476381.4333
 -37101.96005 -3641.064867 476006.3639
 36834.60932 -9624.230348 475943.7541
 31100.47697 -12882.15845 476275.8461
 23654.76718 -14048.7425 476670.6999
 14705.24796 -14705.246 477010.8832
 4982.4618 -15003.84939 477202.1908
 -4982.461797 -15003.84935 477202.1908
 -14705.24797 -14705.24604 477010.8832
 -23654.76717 -14048.74248 476670.6999
 -31100.47697 -12882.15847 476275.8461
 -36834.60932 -9624.230345 475943.7541
 0 0 0
 28529.07677 -21800.08538 476112.087
 22585.85993 -22585.85843 476394.4051
 14048.74529 -23654.76674 476670.6998
 4759.825476 -24145.88714 476829.3106
 -4759.82548 -24145.88718 476829.3106
 -14048.74527 -23654.76671 476670.6998
 -22585.85994 -22585.85845 476394.4051
 -28529.07676 -21800.08537 476112.087
 0 0 -0
 0 0 0
 27323.34283 -27323.34159 475897.8265
 21800.08778 -28529.07634 476112.0869
 12882.162 -31100.47728 476275.846
 4358.979742 -31837.09663 476381.4332
 -4358.979738 -31837.09659 476381.4332
 -12882.16201 -31100.4773 476275.846
 -21800.08777 -28529.07633 476112.0869
 -27323.34284 -27323.3416 475897.8265
 0 0 -0
 0 0 0
 0 0 0
 0 0 0
 9624.234763 -36834.61058 475943.7539
 3641.069787 -37101.96159 476006.3638
 -3641.069789 -37101.9616 476006.3638
 -9624.234762 -36834.61057 475943.7539
 0 0 -0
 0 0 -0
 0 0 -0
 0 0 0
 0 0 0
 0 0 0
 8182.886766 32220.92685 476305.284
 3156.155856 32464.68134 476348.564
 -3156.155856 32464.68133 476348.564
 -8182.886766 32220.92686 476305.284
 0 0 -0
 0 0 -0
 0 0 -0
 0 0 0
 23865.02909 23865.03811 476269.6627
 19256.50824 24992.83304 476420.4199
 11351.75695 27549.7159 476533.3378
 3861.288265 28353.47079 476605.7516
 -3861.288262 28353.47082 476605.7516
 -11351.75696 27549.71588 476533.3378
 -19256.50824 24992.83305 476420.4199
 -23865.02908 23865.03811 476269.6627
 0 0 -0
 0 0 0
 24992.82355 19256.51706 476420.42
 20113.0543 20113.06343 476615.9891
 12602.64317 21241.4817 476824.752
 4285.832175 21780.2782 476947.7146
 -4285.832173 21780.27815 476947.7146
 -12602.64317 21241.48174 476824.752
 -20113.05429 20113.0634 476615.9891
 -24992.82356 19256.51708 476420.42
 0 0 -0
 32220.91628 8182.893351 476305.2846
 27549.70575 11351.76411 476533.3382
 21241.4725 12602.65089 476824.7522
 13309.67251 13309.681 477092.8382
 4525.554458 13634.11845 477247.8407
 -4525.554468 13634.11851 477247.8407
 -13309.67248 13309.68096 477092.8382
 -21241.47253 12602.65092 476824.7522
 -27549.70571 11351.76408 476533.3382
 -32220.9163 8182.893359 476305.2846
 32464.67091 3156.161781 476348.5647
 28353.46057 3861.294153 476605.7521
 21780.26892 4285.838407 476947.7149
 13634.11039 4525.561016 477247.8409
 4634.63893 4634.645727 477419.0104
 -4634.638927 4634.645682 477419.0104
 -13634.11041 4525.561054 477247.8409
 -21780.26889 4285.838369 476947.7149
 -28353.46062 3861.294189 476605.7521
 -32464.67088 3156.161768 476348.5647
 32464.67108 -3156.151419 476348.5647
 28353.46078 -3861.283812 476605.7522
 21780.26913 -4285.827577 476947.715
 13634.11038 -4525.550149 477247.841
 4634.639155 -4634.634538 477419.0105
 -4634.639161 -4634.634483 477419.0105
 -13634.11038 -4525.550198 477247.841
 -21780.26915 -4285.827535 476947.715
 -28353.46076 -3861.283854 476605.7522
 -32464.6711 -3156.151404 476348.5647
 32220.91672 -8182.882988 476305.2847
 27549.70613 -11351.75358 476533.3385
 21241.4729 -12602.64008 476824.7525
 13309.67279 -13309.67021 477092.8385
 4525.554433 -13634.10757 477247.841
 -4525.55444 -13634.10764 477247.841
 -13309.67277 -13309.67015 477092.8385
 -21241.47292 -12602.64013 476824.7525
 -27549.70613 -11351.75354 476533.3385
 -32220.91672 -8182.882999 476305.2847
 0 0 0
 24992.82421 -19256.50677 476420.4204
 20113.05498 -20113.05296 476615.9895
 12602.64358 -21241.47163 476824.7525
 4285.832327 -21780.26782 476947.715
 -4285.832317 -21780.26774 476947.715
 -12602.64361 -21241.4717 476824.7525
 -20113.05495 -20113.05292 476615.9895
 -24992.82421 -19256.5068 476420.4204
 0 0 -0
 0 0 0
 23865.02991 -23865.02764 476269.6632
 19256.50895 -24992.82254 476420.4204
 11351.75744 -27549.70548 476533.3384
 3861.288469 -28353.46038 476605.7522
 -3861.288479 -28353.46044 476605.7522
 -11351.75742 -27549.70543 476533.3384
 -19256.50896 -24992.82257 476420.4204
 -23865.02991 -23865.02762 476269.6632
 0 0 -0
 0 0 0
 0 0 0
 0 0 0
 8182.887217 -32220.91629 476305.2847
 3156.156067 -32464.67086 476348.5647
 -3156.156062 -32464.67083 476348.5647
 -8182.88722 -32220.9163 476305.2847
 0 0 -0
 0 0 -0
 0 0 -0
 0 0 0
 0 0 0
 0 0 0
 6637.543725 26588.44858 476676.9018
 2573.629668 26793.30795 476704.6951
 -2573.629668 26793.30795 476704.6951
 -6637.543728 26588.44858 476676.9018
 0 0 -0
 0 0 -0
 0 0 -0
 0 0 0
 19687.47205 19687.47835 476651.5267
 15953.78066 20647.98862 476750.468
 9389.175928 22871.49999 476823.457
 3198.964839 23612.18389 476869.0624
 -3198.964843 23612.18389 476869.0624
 -9389.175912 22871.49998 476823.457
 -15953.78066 20647.98862 476750.468
 -19687.47205 19687.47835 476651.5267
 0 0 -0
 0 0 0
 20647.98227 15953.78707 476750.4681
 16750.21824 16750.22457 476876.0127
 10552.34685 17803.74483 477015.2471
 3599.418504 18326.06613 477098.5965
 -3599.418501 18326.06615 477098.5965
 -10552.34686 17803.74481 477015.2471
 -16750.21824 16750.22458 476876.0127
 -20647.98225 15953.78706 476750.4681
 0 0 -0
 26588.44156 6637.549463 476676.9021
 22871.49315 9389.181668 476823.4572
 17803.73808 10552.35294 477015.2472
 11235.94173 11235.94814 477199.5163
 3834.345627 11557.67656 477308.6938
 -3834.345622 11557.67651 477308.6938
 -11235.94175 11235.94818 477199.5163
 -17803.73805 10552.3529 477015.2472
 -22871.49319 9389.181696 476823.4572
 -26588.44154 6637.549454 476676.9021
 26793.30153 2573.634889 476704.6955
 23612.17749 3198.970413 476869.0627
 18326.05943 3599.423796 477098.5967
 11557.66992 3834.351752 477308.6939
 3943.485053 3943.490815 477431.4287
 -3943.485065 3943.490852 477431.4287
 -11557.6699 3834.351717 477308.6939
 -18326.05947 3599.423842 477098.5967
 -23612.17743 3198.97036 476869.0627
 -26793.30157 2573.634914 476704.6955
 26793.30175 -2573.624806 476704.6955
 23612.17758 -3198.960452 476869.0628
 18326.05964 -3599.413712 477098.5968
 11557.6701 -3834.341815 477308.694
 3943.485031 -3943.480717 477431.4288
 -3943.485029 -3943.480761 477431.4288
 -11557.67012 -3834.341782 477308.694
 -18326.05961 -3599.413761 477098.5968
 -23612.17763 -3198.9604 476869.0628
 -26793.30172 -2573.624826 476704.6955
 26588.44193 -6637.539637 476676.9022
 22871.49361 -9389.171772 476823.4574
 17803.73851 -10552.343 477015.2474
 11235.94202 -11235.93823 477199.5165
 3834.345706 -11557.66675 477308.6941
 -3834.345712 -11557.6667 477308.6941
 -11235.94202 -11235.93828 477199.5165
 -17803.73852 -10552.34295 477015.2474
 -22871.49359 -9389.171819 476823.4574
 -26588.44194 -6637.539619 476676.9022
 0 0 0
 20647.98285 -15953.77758 476750.4684
 16750.21883 -16750.21503 476876.013
 10552.34725 -17803.7355 477015.2474
 3599.418716 -18326.05663 477098.5969
 -3599.418724 -18326.05669 477098.5969
 -10552.34723 -17803.73545 477015.2474
 -16750.21886 -16750.21508 476876.013
 -20647.98285 -15953.77755 476750.4684
 0 0 -0
 0 0 0
 19687.47273 -19687.46912 476651.5271
 15953.78134 -20647.97932 476750.4684
 9389.176381 -22871.49069 476823.4575
 3198.964956 -23612.17462 476869.0629
 -3198.964948 -23612.17457 476869.0629
 -9389.176399 -22871.49073 476823.4574
 -15953.78133 -20647.9793 476750.4684
 -19687.47274 -19687.46913 476651.5271
 0 0 -0
 0 0 0
 0 0 0
 0 0 0
 6637.543964 -26588.43919 476676.9023
 2573.629742 -26793.2987 476704.6957
 -2573.629748 -26793.29872 476704.6957
 -6637.543958 -26588.43918 476676.9023
 0 0 -0
 0 0 -0
 0 0 -0
 0 0 0
 0 0 0
 0 0 0
 5246.28431 21227.96212 476963.0189
 2036.455291 21389.00966 476980.3292
 -2036.455294 21389.00967 476980.3292
 -5246.284308 21227.96211 476963.0189
 0 0 -0
 0 0 -0
 0 0 -0
 0 0 0
 15719.96442 15719.96762 476946.157
 12750.95372 16487.96296 477008.838
 7492.505642 18296.08004 477054.4907
 2552.958778 18913.05465 477082.4353
 -2552.958775 18913.05463 477082.4353
 -7492.505661 18296.08006 477054.4907
 -12750.95372 16487.96295 477008.838
 -15719.96442 15719.96762 476946.157
 0 0 -0
 0 0 0
 16487.95965 12750.95747 477008.838
 13416.215 13416.2182 477086.87
 8473.340654 14307.11827 477174.3708
 2894.802866 14758.90219 477227.0594
 -2894.802877 14758.90216 477227.0594
 -8473.340639 14307.11828 477174.3708
 -13416.215 13416.21819 477086.87
 -16487.95966 12750.95747 477008.838
 0 0 -0
 21227.95942 5246.288979 476963.019
 18296.07743 7492.509731 477054.4908
 14307.11495 8473.344497 477174.3708
 9066.946965 9066.95096 477291.7893
 3101.444465 9352.271532 477362.3229
 -3101.444473 9352.271596 477362.3229
 -9066.94695 9066.95091 477291.7893
 -14307.11498 8473.344532 477174.3708
 -18296.07738 7492.509713 477054.4908
 -21227.95944 5246.288986 476963.019
 21389.00761 2036.459772 476980.3292
 18913.05233 2552.963407 477082.4354
 14758.89925 2894.807436 477227.0595
 9352.268138 3101.448333 477362.323
 3199.384328 3199.388525 477442.5611
 -3199.384317 3199.388463 477442.5611
 -9352.268171 3101.448389 477362.323
 -14758.8992 2894.807384 477227.0595
 -18913.0524 2552.963446 477082.4354
 -21389.00758 2036.459759 476980.3292
 21389.00773 -2036.450579 476980.3293
 18913.05262 -2552.954292 477082.4354
 14758.89938 -2894.798615 477227.0595
 9352.268352 -3101.43982 477362.323
 3199.384319 -3199.380076 477442.5612
 -3199.384336 -3199.380046 477442.5612
 -9352.268331 -3101.439853 477362.323
 -14758.89942 -2894.798562 477227.0595
 -18913.05256 -2552.95434 477082.4354
 -21389.00777 -2036.450562 476980.3293
 21227.95981 -5246.28004 476963.0191
 18296.07785 -7492.500987 477054.4909
 14307.11551 -8473.335873 477174.371
 9066.947355 -9066.942457 477291.7895
 3101.444659 -9352.263367 477362.3231
 -3101.444649 -9352.263376 477362.3231
 -9066.947371 -9066.94243 477291.7895
 -14307.11548 -8473.335916 477174.371
 -18296.0779 -7492.500948 477054.4909
 -21227.95979 -5246.280049 476963.0191
 0 0 0
 16487.96045 -12750.94905 477008.8382
 13416.21567 -13416.20996 477086.8702
 8473.341246 -14307.11013 477174.371
 2894.803022 -14758.89419 477227.0596
 -2894.803024 -14758.89417 477227.0596
 -8473.341249 -14307.11015 477174.371
 -13416.21566 -13416.20993 477086.8702
 -16487.96044 -12750.94907 477008.8382
 0 0 -0
 0 0 0
 15719.96529 -15719.9598 476946.1572
 12750.95457 -16487.95508 477008.8383
 7492.506085 -18296.07243 477054.491
 2552.959065 -18913.04708 477082.4356
 -2552.959074 -18913.04711 477082.4356
 -7492.506067 -18296.07239 477054.491
 -12750.95458 -16487.9551 477008.8383
 -15719.96529 -15719.95979 476946.1572
 0 0 -0
 0 0 0
 0 0 0
 0 0 0
 5246.284621 -21227.95456 476963.0193
 2036.455386 -21389.00233 476980.3295
 -2036.455381 -21389.00231 476980.3295
 -5246.284629 -21227.95457 476963.0193
 0 0 -0
 0 0 -0
 0 0 -0
 0 0 0
 0 0 0
 0 0 0
 4078.439796 16606.22464 477157.7003
 1583.331773 16727.4859 477168.2676
 -1583.331775 16727.48589 477168.2676
 -4078.439799 16606.22464 477157.7003
 0 0 -0
 0 0 -0
 0 0 -0
 0 0 0
 12300.07592 12300.07631 477147.0293
 9973.355771 12891.77453 477185.714
 5851.171037 14312.12119 477213.5772
 1992.777395 14799.70935 477230.4147
 -1992.777403 14799.70933 477230.4147
 -5851.17102 14312.12119 477213.5772
 -9973.355774 12891.77453 477185.714
 -12300.07592 12300.07631 477147.0293
 0 0 -0
 0 0 0
 12891.77435 9973.357247 477185.7139
 10497.04505 10497.04591 477233.1667
 6633.771567 11207.35489 477286.3497
 2267.448158 11571.51639 477318.3738
 -2267.44815 11571.51648 477318.3738
 -6633.771582 11207.35484 477286.3497
 -10497.04505 10497.04593 477233.1667
 -12891.77434 9973.357251 477185.7139
 0 0 -0
 16606.22605 4078.442435 477157.7002
 14312.12167 5851.173122 477213.5772
 11207.35455 6633.773377 477286.3496
 7114.448297 7114.449046 477357.9794
 2436.184855 7348.294645 477401.2347
 -2436.184847 7348.294494 477401.2347
 -7114.448317 7114.449156 477357.9794
 -11207.35451 6633.773331 477286.3496
 -14312.12171 5851.173132 477213.5772
 -16606.22604 4078.442434 477157.7002
 16727.48723 1583.334847 477168.2675
 14799.71028 1992.780684 477230.4147
 11571.51699 2267.450316 477318.3738
 7348.294338 2436.187159 477401.2347
 2517.165631 2517.167392 477450.7294
 -2517.165654 2517.167535 477450.7294
 -7348.294294 2436.187043 477401.2347
 -11571.51705 2267.450393 477318.3738
 -14799.71021 1992.780661 477230.4147
 -16727.48726 1583.334851 477168.2675
 16727.48731 -1583.327966 477168.2675
 14799.71035 -1992.773642 477230.4147
 11571.51719 -2267.443692 477318.3738
 7348.29428 -2436.180859 477401.2347
 2517.165818 -2517.161459 477450.7295
 -2517.165798 -2517.161525 477450.7295
 -7348.29431 -2436.180788 477401.2347
 -11571.51714 -2267.443764 477318.3738
 -14799.71041 -1992.773604 477230.4147
 -16727.48728 -1583.327974 477168.2675
 16606.2262 -4078.435621 477157.7003
 14312.12216 -5851.166324 477213.5772
 11207.35488 -6633.76695 477286.3497
 7114.448727 -7114.442698 477357.9795
 2436.184875 -7348.288506 477401.2348
 -2436.184895 -7348.288498 477401.2348
 -7114.448697 -7114.442734 477357.9795
 -11207.35492 -6633.766903 477286.3497
 -14312.12209 -5851.166354 477213.5772
 -16606.22622 -4078.435607 477157.7003
 0 0 0
 12891.77509 -9973.350449 477185.7141
 10497.04572 -10497.03937 477233.1668
 6633.771976 -11207.34834 477286.3498
 2267.448344 -11571.5102 477318.374
 -2267.448331 -11571.51022 477318.374
 -6633.771983 -11207.34831 477286.3498
 -10497.04572 -10497.03941 477233.1668
 -12891.7751 -9973.350427 477185.7141
 0 0 -0
 0 0 0
 12300.07676 -12300.07003 477147.0294
 9973.356519 -12891.76839 477185.7141
 5851.171475 -14312.11523 477213.5774
 1992.777529 -14799.70356 477230.4149
 -1992.77752 -14799.70353 477230.4149
 -5851.171496 -14312.11527 477213.5774
 -9973.356506 -12891.76836 477185.7141
 -12300.07676 -12300.07004 477147.0294
 0 0 -0
 0 0 0
 0 0 0
 0 0 0
 4078.440081 -16606.2188 477157.7005
 1583.331956 -16727.48012 477168.2678
 -1583.331958 -16727.48014 477168.2678
 -4078.440072 -16606.21878 477157.7005
 0 0 -0
 0 0 -0
 0 0 -0
 0 0 0
 0 0 0
 0 0 0
 3138.264181 12830.29146 477281.2653
 1218.178431 12919.45414 477287.623
 -1218.17843 12919.45414 477287.623
 -3138.264182 12830.29146 477281.2653
 0 0 -0
 0 0 -0
 0 0 -0
 0 0 0
 9505.618388 9505.617088 477274.7194
 7700.863708 9952.40563 477298.1433
 4511.199713 11047.65535 477314.8538
 1535.430172 11422.63922 477324.8758
 -1535.430168 11422.63926 477324.8758
 -4511.199721 11047.65533 477314.8538
 -7700.863706 9952.405632 477298.1433
 -9505.618385 9505.617089 477274.7194
 0 0 -0
 0 0 0
 9952.407732 7700.862565 477298.1433
 8100.361454 8100.360674 477326.5545
 5117.077218 8648.61018 477358.239
 1748.785246 8930.765615 477377.2664
 -1748.785258 8930.765495 477377.2664
 -5117.077207 8648.610256 477358.239
 -8100.361448 8100.360648 477326.5545
 -9952.407737 7700.862566 477298.1433
 0 0 -0
 12830.29519 3138.264204 477281.2652
 11047.65793 4511.200483 477314.8538
 8648.611653 5117.076936 477358.239
 5490.899033 5490.898522 477400.8498
 1880.606258 5673.655846 477426.5852
 -1880.606262 5673.656043 477426.5852
 -5490.899018 5490.898377 477400.8498
 -8648.611682 5117.076999 477358.239
 -11047.65791 4511.200473 477314.8538
 -12830.2952 3138.264204 477281.2652
 12919.45777 1218.179901 477287.6229
 11422.6421 1535.431247 477324.8757
 8930.767222 1748.786845 477377.2664
 5673.656287 1880.606916 477426.5852
 1944.219359 1944.220296 477456.0831
 -1944.219341 1944.220086 477456.0831
 -5673.656318 1880.607081 477426.5852
 -8930.767183 1748.786748 477377.2664
 -11422.64215 1535.431276 477324.8757
 -12919.45775 1218.179901 477287.6229
 12919.45758 -1218.175607 477287.6229
 11422.64209 -1535.426476 477324.8757
 8930.767065 -1748.782588 477377.2664
 5673.656314 -1880.603044 477426.5852
 1944.219219 -1944.216897 477456.0831
 -1944.219231 -1944.216749 477456.0831
 -5673.656295 -1880.60318 477426.5852
 -8930.767092 -1748.782489 477377.2664
 -11422.64205 -1535.426519 477324.8758
 -12919.4576 -1218.175599 477287.6229
 12830.29497 -3138.259933 477281.2652
 11047.65788 -4511.195926 477314.8538
 8648.611734 -5117.07279 477358.239
 5490.898887 -5490.89429 477400.8498
 1880.606315 -5673.651914 477426.5852
 -1880.606299 -5673.651994 477426.5852
 -5490.89891 -5490.894198 477400.8498
 -8648.611709 -5117.072864 477358.239
 -11047.65792 -4511.195889 477314.8538
 -12830.29496 -3138.25994 477281.2652
 0 0 0
 9952.407881 -7700.857624 477298.1434
 8100.361403 -8100.356037 477326.5545
 5117.077213 -8648.605108 477358.2391
 1748.785173 -8930.760906 477377.2665
 -1748.785183 -8930.760847 477377.2665
 -5117.077214 -8648.605175 477358.2391
 -8100.361396 -8100.355976 477326.5545
 -9952.407871 -7700.85765 477298.1434
 0 0 -0
 0 0 0
 9505.618459 -9505.612382 477274.7195
 7700.863818 -9952.400971 477298.1434
 4511.199732 -11047.65072 477314.8539
 1535.430084 -11422.63465 477324.8759
 -1535.430089 -11422.63471 477324.8759
 -4511.199706 -11047.65067 477314.8539
 -7700.863836 -9952.401004 477298.1434
 -9505.618454 -9505.612371 477274.7195
 0 0 -0
 0 0 0
 0 0 0
 0 0 0
 3138.263951 -12830.28669 477281.2654
 1218.178305 -12919.44936 477287.6231
 -1218.178298 -12919.44933 477287.6231
 -3138.26396 -12830.2867 477281.2654
 0 0 -0
 0 0 -0
 0 0 -0
 0 0 0
 0 0 0
 0 0 0
 2402.112149 9846.824101 477356.409
 932.2258352 9911.706033 477360.1998
 -932.2258345 9911.706034 477360.1998
 -2402.112146 9846.824101 477356.409
 0 0 -0
 0 0 -0
 0 0 -0
 0 0 0
 7297.145715 7297.142639 477352.4638
 5905.688668 7631.390768 477366.4798
 3454.960303 8468.125131 477376.398
 1175.144955 8752.731925 477382.3206
 -1175.14496 8752.731897 477382.3206
 -3454.960291 8468.125152 477376.398
 -5905.68867 7631.390764 477366.4798
 -7297.14571 7297.142635 477352.4638
 0 0 -0
 0 0 0
 7631.393947 5905.686479 477366.4798
 6205.858505 6205.856263 477383.3323
 3916.866298 6622.14525 477402.0074
 1337.994006 6836.363441 477413.1808
 -1337.993991 6836.363526 477413.1808
 -3916.866323 6622.145195 477402.0074
 -6205.858492 6205.856287 477383.3323
 -7631.393955 5905.68648 477366.4798
 0 0 -0
 9846.828651 2402.111562 477356.4089
 8468.128971 3454.95934 477376.398
 6622.147222 3916.865398 477402.0074
 4201.466102 4201.46501 477427.0276
 1438.547948 4340.65747 477442.1018
 -1438.547953 4340.657319 477442.1018
 -4201.466097 4201.465132 477427.0276
 -6622.147221 3916.865339 477402.0074
 -8468.12897 3454.959353 477376.398
 -9846.828649 2402.11156 477356.4089
 9911.710368 932.2261483 477360.1997
 8752.735321 1175.145346 477382.3205
 6836.365257 1337.99444 477413.1808
 4340.657955 1438.548148 477442.1018
 1487.109963 1487.110307 477459.3682
 -1487.109963 1487.110498 477459.3682
 -4340.657954 1438.547985 477442.1018
 -6836.365265 1337.994547 477413.1808
 -8752.735314 1175.145314 477382.3205
 -9911.710375 932.2261531 477360.1997
 9911.710139 -932.2239196 477360.1997
 8752.734978 -1175.14257 477382.3205
 6836.365118 -1337.992072 477413.1808
 4340.657781 -1438.54589 477442.1018
 1487.109739 -1487.108565 477459.3682
 -1487.109739 -1487.108747 477459.3682
 -4340.657768 -1438.54572 477442.1018
 -6836.365132 -1337.992194 477413.1808
 -8752.734981 -1175.142514 477382.3205
 -9911.710132 -932.2239296 477360.1997
 9846.828131 -2402.109279 477356.4089
 8468.1286 -3454.956767 477376.398
 6622.146686 -3916.863163 477402.0074
 4201.46569 -4201.46241 477427.0276
 1438.54787 -4340.65502 477442.1018
 -1438.54787 -4340.654874 477442.1018
 -4201.4657 -4201.462552 477427.0276
 -6622.146676 -3916.863052 477402.0074
 -8468.128587 -3454.956818 477376.398
 -9846.828135 -2402.10927 477356.4089
 0 0 0
 7631.393196 -5905.683484 477366.4798
 6205.857765 -6205.853302 477383.3324
 3916.865753 -6622.141687 477402.0074
 1337.993691 -6836.36018 477413.1808
 -1337.993695 -6836.360296 477413.1808
 -3916.865733 -6622.141573 477402.0074
 -6205.857785 -6205.853386 477383.3324
 -7631.393192 -5905.683449 477366.4798
 0 0 -0
 0 0 0
 7297.14471 -7297.139639 477352.4638
 5905.687934 -7631.387774 477366.4798
 3454.959665 -8468.121808 477376.3981
 1175.144769 -8752.728753 477382.3207
 -1175.144756 -8752.728657 477382.3207
 -3454.959693 -8468.121893 477376.3981
 -5905.687913 -7631.387728 477366.4798
 -7297.14472 -7297.139656 477352.4638
 0 0 -0
 0 0 0
 0 0 0
 0 0 0
 2402.11158 -9846.820654 477356.4091
 932.2254642 -9911.702515 477360.1999
 -932.2254701 -9911.702555 477360.1999
 -2402.111572 -9846.820626 477356.4091
 0 0 -0
 0 0 -0
 0 0 -0
 0 0 0
 0 0 0
 0 0 0
 1836.430347 7540.323251 477400.9241
 712.5127425 7587.464054 477403.1776
 -712.5127392 7587.464057 477403.1776
 -1836.430344 7540.323251 477400.9241
 0 0 -0
 0 0 -0
 0 0 -0
 0 0 0
 5589.404179 5589.400125 477398.5635
 4518.963655 5838.917703 477406.9096
 2640.694858 6476.070542 477412.7758
 897.6281364 6691.069527 477416.2703
 -897.6281253 6691.069526 477416.2703
 -2640.694875 6476.070541 477412.7758
 -4518.963641 5838.917703 477406.9096
 -5589.404185 5589.400125 477398.5635
 0 0 -0
 0 0 0
 5838.92164 4518.961266 477406.9095
 4743.320244 4743.318069 477416.8756
 2990.665171 5057.38373 477427.848
 1021.011448 5218.655904 477434.3876
 -1021.011467 5218.655895 477434.3876
 -2990.665138 5057.383742 477427.848
 -4743.320268 4743.318058 477416.8756
 -5838.921624 4518.961268 477406.9095
 0 0 -0
 7540.327635 1836.429854 477400.924
 6476.073714 2640.693802 477412.7758
 5057.385832 2990.663455 477427.848
 3205.351683 3205.350221 477442.4811
 1096.893937 3310.128218 477451.2658
 -1096.893924 3310.128257 477451.2658
 -3205.351706 3205.350178 477442.4811
 -5057.385812 2990.663485 477427.848
 -6476.073728 2640.693797 477412.7758
 -7540.327629 1836.429854 477400.924
 7587.467693 712.5124556 477403.1776
 6691.072341 897.6276667 477416.2703
 5218.657628 1021.010694 477434.3876
 3310.129141 1096.894206 477451.2657
 1133.469935 1133.469624 477461.3092
 -1133.469942 1133.469549 477461.3092
 -3310.129122 1096.894281 477451.2657
 -5218.65765 1021.010631 477434.3876
 -6691.07232 897.6276953 477416.2703
 -7587.467696 712.5124497 477403.1776
 7587.467496 -712.5125781 477403.1776
 6691.072208 -897.6272574 477416.2703
 5218.657266 -1021.010375 477434.3876
 3310.128966 -1096.89311 477451.2658
 1133.46977 -1133.468579 477461.3092
 -1133.469759 -1133.468474 477461.3092
 -3310.128997 -1096.893217 477451.2658
 -5218.657226 -1021.010286 477434.3876
 -6691.072232 -897.6272989 477416.2703
 -7587.46749 -712.5125736 477403.1776
 7540.327349 -1836.429724 477400.9241
 6476.073181 -2640.693576 477412.7758
 5057.385227 -2990.663141 477427.848
 3205.351111 -3205.349262 477442.4811
 1096.893719 -3310.12677 477451.2658
 -1096.893728 -3310.126893 477451.2658
 -3205.351075 -3205.349142 477442.4811
 -5057.385264 -2990.663239 477427.848
 -6476.073168 -2640.693531 477412.7758
 -7540.327346 -1836.429732 477400.9241
 0 0 0
 5838.920616 -4518.960598 477406.9096
 4743.319256 -4743.317339 477416.8757
 2990.664383 -5057.38198 477427.8481
 1021.011136 -5218.654371 477434.3876
 -1021.011123 -5218.654255 477434.3876
 -2990.664413 -5057.38209 477427.8481
 -4743.319225 -4743.31726 477416.8757
 -5838.920625 -4518.960624 477406.9096
 0 0 -0
 0 0 0
 5589.402803 -5589.399494 477398.5636
 4518.962622 -5838.916996 477406.9096
 2640.694193 -6476.069483 477412.7759
 897.6278403 -6691.068276 477416.2703
 -897.6278524 -6691.068365 477416.2703
 -2640.694169 -6476.069407 477412.7759
 -4518.962637 -5838.917034 477406.9096
 -5589.402795 -5589.399483 477398.5636
 0 0 -0
 0 0 0
 0 0 0
 0 0 0
 1836.430003 -7540.3221 477400.9241
 712.5125596 -7587.462819 477403.1776
 -712.5125557 -7587.462788 477403.1776
 -1836.430007 -7540.322121 477400.9241
 0 0 -0
 0 0 -0
 0 0 -0
 0 0 0
 0 0 0
 0 0 0
 1407.049429 5782.179499 477426.9137
 545.770631 5816.583474 477428.2572
 -545.7706308 5816.583477 477428.2572
 -1407.04943 5782.179496 477426.9137
 0 0 -0
 0 0 -0
 0 0 -0
 0 0 0
 4287.386186 4287.382957 477425.4999
 3462.952677 4474.16692 477430.4778
 2021.739279 4959.870632 477433.9573
 686.8575118 5122.427777 477436.0274
 -686.8575175 5122.427779 477436.0274
 -2021.739276 4959.870633 477433.9573
 -3462.952683 4474.166914 477430.4778
 -4287.386186 4287.382956 477425.4999
 0 0 -0
 0 0 0
 4474.170435 3462.950142 477430.4777
 3630.837467 3630.834502 477436.3888
 2286.857742 3867.788996 477442.8571
 780.2636222 3989.095286 477446.6982
 -780.2636139 3989.09526 477446.6982
 -2286.857755 3867.789008 477442.8571
 -3630.837458 3630.834499 477436.3888
 -4474.170438 3462.950139 477430.4777
 0 0 -0
 5782.182589 1407.047682 477426.9136
 4959.873296 2021.737785 477433.9572
 3867.791092 2286.855182 477442.8571
 2448.571368 2448.569223 477451.4429
 837.3966737 2527.232781 477456.5772
 -837.3966744 2527.232833 477456.5772
 -2448.571359 2448.569191 477451.4429
 -3867.791101 2286.855198 477442.8571
 -4959.873288 2021.737775 477433.9572
 -5782.182591 1407.047685 477426.9136
 5816.586051 545.7687705 477428.2572
 5122.43011 686.8560483 477436.0274
 3989.096878 780.2624034 477446.6982
 2527.234816 837.3954371 477456.5772
 864.8433886 864.8425671 477462.4335
 -864.8433877 864.842509 477462.4335
 -2527.234826 837.3954753 477456.5772
 -3989.096858 780.262385 477446.6982
 -5122.430127 686.8560572 477436.0274
 -5816.586047 545.7687653 477428.2572
 5816.586001 -545.7719723 477428.2572
 5122.429933 -686.8588117 477436.0274
 3989.096711 -780.2648419 477446.6982
 2527.234551 -837.3966508 477456.5772
 864.8433906 -864.843262 477462.4335
 -864.8433975 -864.8432493 477462.4335
 -2527.234525 -837.3966531 477456.5772
 -3989.096747 -780.2648413 477446.6982
 -5122.429905 -686.8588201 477436.0274
 -5816.586005 -545.7719748 477428.2572
 5782.182395 -1407.050748 477426.9136
 4959.872916 -2021.740549 477433.9572
 3867.790431 -2286.857567 477442.8571
 2448.570999 -2448.570581 477451.4429
 837.3963984 -2527.233427 477456.5772
 -837.396384 -2527.233374 477456.5772
 -2448.571029 -2448.570624 477451.4429
 -3867.790396 -2286.857541 477442.8571
 -4959.872931 -2021.740555 477433.9572
 -5782.182391 -1407.050748 477426.9136
 0 0 0
 4474.169519 -3462.952586 477430.4777
 3630.836669 -3630.836616 477436.3888
 2286.857018 -3867.79007 477442.8571
 780.2635425 -3989.096016 477446.6982
 -780.2635505 -3989.096087 477446.6982
 -2286.856991 -3867.790014 477442.8571
 -3630.836692 -3630.836648 477436.3888
 -4474.169508 -3462.952579 477430.4777
 0 0 -0
 0 0 0
 4287.385068 -4287.385222 477425.4999
 3462.95178 -4474.169115 477430.4777
 2021.738958 -4959.872237 477433.9572
 686.857183 -5122.428992 477436.0274
 -686.8571745 -5122.428945 477436.0274
 -2021.738966 -4959.872275 477433.9572
 -3462.951766 -4474.169099 477430.4777
 -4287.385074 -4287.385235 477425.4999
 0 0 -0
 0 0 0
 0 0 0
 0 0 0
 1407.049254 -5782.181217 477426.9137
 545.7705931 -5816.584847 477428.2572
 -545.7705984 -5816.584866 477428.2572
 -1407.049248 -5782.181208 477426.9137
 0 0 -0
 0 0 -0
 0 0 -0
 0 0 0
 0 0 0
 0 0 0
 1083.492142 4453.42869 477442.001
 420.151667 4478.755106 477442.8086
 -420.1516649 4478.755102 477442.8086
 -1083.492147 4453.428692 477442.001
 0 0 -0
 0 0 -0
 0 0 -0
 0 0 0
 3303.151986 3303.149384 477441.1479
 2665.622729 3443.860664 477444.1387
 1555.127628 3815.748384 477446.2199
 528.0911011 3939.243499 477447.4576
 -528.0911086 3939.243509 477447.4576
 -1555.127617 3815.748376 477446.2199
 -2665.622735 3443.860668 477444.1387
 -3303.151984 3303.149383 477441.1479
 0 0 -0
 0 0 0
 3443.86374 2665.61962 477444.1387