# OOMMF OVF 2.0
#
# Segment count: 1
#
# Begin: Segment
# Begin: Header
#
# Title: Oxs_MinDriver::Magnetization
# Desc: Oxs vector field output
# Desc:  MIF source file: F:/Bogdan/UNIC/2022/Master_degree/Simulation_samples/Cylinder0_5000 1.mif
# Desc:  Iteration: 793, State id: 9062
# Desc:  Stage: 0, Stage iteration: 793
# Desc:  Stage simulation time: -1 s
# Desc:  Total simulation time: -2 s
# meshunit: m
# meshtype: rectangular
# xbase: -8.9999999999999995e-09
# ybase: -8.9999999999999995e-09
# zbase: -8.6999999999999998e-08
# xnodes: 10
# ynodes: 10
# znodes: 88
# xstepsize: 2.0000000000000001e-09
# ystepsize: 2.0000000000000001e-09
# zstepsize: 2.0000000000000001e-09
# xmin: -1e-08
# ymin: -1e-08
# zmin: -8.7999999999999994e-08
# xmax: 1e-08
# ymax: 1e-08
# zmax: 8.800000000000002e-08
# valuedim: 3
# valuelabels: Magnetization_x Magnetization_y Magnetization_z
# valueunits: A/m A/m A/m
#
# End: Header
#
# Begin: Data Text
 0 0 0
 0 0 0
 0 0 0
 10112.80615 44021.80468 475322.7148
 3831.291662 44303.75028 475388.6517
 -3831.386382 44303.74952 475388.6511
 -10112.90044 44021.80395 475322.7128
 0 0 -0
 0 0 -0
 0 0 -0
 0 0 0
 28844.96514 33978.3031 475379.1268
 23022.32875 35282.26297 475601.73
 13590.46908 38064.37572 475750.222
 4600.102998 38878.6155 475856.2426
 -4600.198159 38878.61476 475856.2417
 -13590.56388 38064.37438 475750.2194
 -23022.42201 35282.26038 475601.7257
 -28845.05739 33978.29998 475379.1214
 0 0 -0
 0 0 0
 30105.00801 28236.43775 475676.6374
 23872.28146 29117.18873 475977.0738
 14860.57425 30310.26374 476269.1703
 5037.274682 30867.85009 476438.5301
 -5037.371025 30867.8493 476438.5292
 -14860.67004 30310.26172 476269.1674
 -23872.37613 29117.18554 475977.0693
 -30105.10175 28236.43377 475676.6317
 0 0 -0
 38853.40335 15298.49876 475634.5659
 32844.9929 18837.78401 475960.3089
 25029.68437 20155.14835 476381.3139
 15581.25918 20912.51767 476751.2583
 5282.940136 21262.76388 476961.0641
 -5283.037647 21262.76314 476961.0631
 -15581.35589 20912.51481 476751.2552
 -25029.7805 20155.14427 476381.309
 -32845.08865 18837.77921 475960.3025
 -38853.49971 15298.49488 475634.5582
 39132.90654 9053.736486 475771.4964
 33644.89841 9871.242295 476174.8111
 25568.82654 10358.37866 476666.3512
 15911.95798 10642.26258 477080.1014
 5395.227489 10774.93257 477311.9144
 -5395.325311 10774.93165 477311.9133
 -15912.05556 10642.25804 477080.0982
 -25568.92418 10358.37242 476666.3461
 -33644.9956 9871.235935 476174.8043
 -39133.00276 9053.730373 475771.4886
 39124.59481 1401.5999 475856.2523
 33642.88177 675.1570565 476276.7808
 25568.4164 286.200308 476778.8224
 15912.09311 78.11749109 477198.7746
 5395.354693 -13.78979588 477433.515
 -5395.452102 -13.79162054 477433.5139
 -15912.19105 78.11212987 477198.7713
 -25568.51466 286.1922483 476778.8171
 -33642.98017 675.1472315 476276.7739
 -39124.69226 1401.590006 475856.2444
 38831.96578 -4899.615706 475857.062
 32839.21968 -8331.377571 476260.4803
 25025.80943 -9556.43687 476711.92
 15580.47997 -10243.6879 477099.7661
 5283.022988 -10555.6299 477318.0697
 -5283.118994 -10555.63197 477318.0686
 -15580.57656 -10243.69378 477099.7628
 -25025.90694 -9556.446285 476711.9147
 -32839.31709 -8331.388435 476260.4734
 -38832.064 -4899.62802 475857.0539
 0 0 0
 30070.08212 -17764.78135 476184.9158
 23853.67732 -18600.31005 476504.8812
 14856.28088 -19736.33092 476824.5374
 5036.633294 -20260.28991 477007.3629
 -5036.726916 -20260.29186 477007.3618
 -14856.37546 -19736.33787 476824.5342
 -23853.7722 -18600.3217 476504.876
 -30070.17702 -17764.79498 476184.9093
 0 0 -0
 0 0 0
 28754.58838 -23611.14675 476012.1413
 22987.06114 -24882.24006 476260.7904
 13583.51333 -27608.18319 476471.5602
 4597.55643 -28397.22215 476596.613
 -4597.64666 -28397.22372 476596.6121
 -13583.60532 -27608.18862 476471.5573
 -22987.15514 -24882.25095 476260.7853
 -28754.68214 -23611.16124 476012.1349
 0 0 -0
 0 0 0
 0 0 0
 0 0 0
 10088.86636 -33649.76851 476169.9058
 3822.138847 -33939.91726 476240.8472
 -3822.224736 -33939.91914 476240.8464
 -10088.95384 -33649.77206 476169.9037
 0 0 -0
 0 0 -0
 0 0 -0
 0 0 0
 0 0 0
 0 0 0
 8639.932495 39181.28005 475775.2097
 3334.035672 39432.97789 475821.1804
 -3334.126134 39432.97705 475821.1799
 -8640.023346 39181.2793 475775.2081
 0 0 -0
 0 0 -0
 0 0 -0
 0 0 0
 25291.4244 30325.44858 475828.3118
 20397.37523 31537.40317 475984.4646
 12010.53291 34290.22826 476079.6138
 4085.492261 35164.80407 476149.7838
 -4085.583067 35164.80338 476149.7831
 -12010.62356 34290.2264 476079.6116
 -20397.46525 31537.40069 475984.4609
 -25291.51341 30325.44601 475828.3072
 0 0 -0
 0 0 0
 26460.28873 25509.47303 476047.2573
 21309.50899 26448.9886 476254.3723
 13356.87036 27692.54081 476473.0722
 4543.532849 28293.42587 476603.3043
 -4543.625165 28293.42511 476603.3035
 -13356.96238 27692.53879 476473.0697
 -21309.59981 26448.98565 476254.3684
 -26460.37955 25509.46961 476047.2525
 0 0 -0
 34099.29307 13723.18184 476047.0395
 29169.09174 17152.33285 476263.407
 22517.67259 18543.04917 476572.1153
 14122.94477 19344.63601 476862.8721
 4804.553598 19717.75684 477032.4912
 -4804.647081 19717.75619 477032.4902
 -14123.03788 19344.63321 476862.8695
 -22517.76569 18543.04512 476572.111
 -29169.18492 17152.32822 476263.4015
 -34099.38679 13723.17804 476047.0329
 34349.07183 8454.298258 476151.8008
 30029.23911 9249.686147 476428.9657
 23099.77869 9754.952057 476805.1095
 14476.66063 10052.65869 477138.5979
 4924.069452 10191.94242 477329.8117
 -4924.163161 10191.94097 477329.8108
 -14476.75497 10052.6549 477138.5952
 -23099.87278 9754.946541 476805.105
 -30029.33309 9249.679684 476428.9599
 -34349.16616 8454.292081 476151.7941
 34337.26934 1799.670035 476224.3005
 30025.17342 1084.46741 476517.769
 23098.09686 671.1964719 476904.4964
 14476.06674 445.7112482 477244.294
 4923.958623 345.4751323 477438.4846
 -4924.052081 345.4735917 477438.4836
 -14476.16089 445.7064496 477244.2911
 -23098.19171 671.1887001 476904.4918
 -30025.26805 1084.458424 476517.7631
 -34337.36406 1799.660918 476224.2937
 34067.92903 -3520.966337 476234.0289
 29157.28552 -6852.080573 476523.6332
 22509.74293 -8158.041576 476863.3233
 14119.89597 -8893.579581 477172.3002
 4803.912414 -9230.21677 477350.6016
 -4804.004216 -9230.218442 477350.6006
 -14119.98865 -8893.585164 477172.2974
 -22509.83647 -8158.050286 476863.3188
 -29157.37965 -6852.091262 476523.6273
 -34068.02397 -3520.977737 476234.022
 0 0 0
 26412.9541 -15230.66202 476489.511
 21282.82091 -16136.40516 476716.4034
 13348.57369 -17327.49453 476962.729
 4541.650255 -17896.85421 477106.851
 -4541.739624 -17896.85607 477106.8501
 -13348.66451 -17327.50127 476962.7262
 -21282.91285 -16136.41564 476716.3989
 -26413.04462 -15230.67452 476489.5056
 0 0 -0
 0 0 0
 25178.96644 -20136.84892 476374.2208
 20349.39391 -21327.32564 476553.1646
 11997.77099 -24026.62328 476708.1352
 4080.994906 -24879.77766 476797.8748
 -4081.082062 -24879.77932 476797.874
 -11997.85933 -24026.62781 476708.1327
 -20349.48475 -21327.33623 476553.1602
 -25179.05656 -20136.86212 476374.2155
 0 0 -0
 0 0 0
 0 0 0
 0 0 0
 8606.945082 -28974.79071 476506.2993
 3321.599789 -29242.19066 476556.1169
 -3321.684043 -29242.19242 476556.1162
 -8607.030214 -28974.79406 476506.2976
 0 0 -0
 0 0 -0
 0 0 -0
 0 0 0
 0 0 0
 0 0 0
 7043.678226 33202.48974 476256.0788
 2731.614369 33409.82665 476285.8313
 -2731.697732 33409.82611 476285.8308
 -7043.76079 33202.48856 476256.0776
 0 0 -0
 0 0 -0
 0 0 -0
 0 0 0
 20957.25156 25855.23321 476302.6053
 16965.06923 26882.85543 476404.6282
 9971.133758 29278.86125 476461.1171
 3396.854804 30080.03007 476503.4359
 -3396.938646 30080.02919 476503.4354
 -9971.217613 29278.85955 476461.1154
 -16965.15246 26882.85327 476404.6254
 -20957.33363 25855.23106 476302.6018
 0 0 -0
 0 0 0
 21945.00266 21933.35822 476454.8415
 17805.65454 22796.79375 476586.966
 11216.44328 23949.45123 476731.0421
 3826.158144 24525.55021 476818.3398
 -3826.242834 24525.54987 476818.3392
 -11216.52753 23949.44914 476731.0402
 -17805.73924 22796.79094 476586.963
 -21945.08507 21933.3555 476454.8378
 0 0 -0
 28243.65356 11984.94809 476477.2065
 24295.77572 14964.18158 476610.5956
 18925.15039 16247.63367 476812.043
 11950.21833 17013.25159 477011.1244
 4079.338847 17377.53133 477130.2251
 -4079.425256 17377.53055 477130.2244
 -11950.30501 17013.24919 477011.1224
 -18925.23565 16247.63006 476812.0398
 -24295.86122 14964.17775 476610.5914
 -28243.74071 11984.9446 476477.2015
 28448.39354 7709.024287 476553.3875
 25081.8311 8410.349064 476730.5728
 19482.70441 8879.851597 476983.6934
 12296.2511 9165.177774 477217.637
 4197.22593 9300.818334 477354.9511
 -4197.313627 9300.816426 477354.9504
 -12296.33816 9165.174715 477217.6348
 -19482.79175 8879.846521 476983.6899
 -25081.91823 8410.343444 476730.5683
 -28448.48059 7709.018914 476553.3824
 28432.7872 2262.495648 476611.2976
 25074.5893 1625.087715 476802.3651
 19478.77523 1232.63652 477064.9109
 12294.33879 1009.535805 477304.6211
 4196.682896 908.0293069 477444.6927
 -4196.769958 908.028802 477444.692
 -12294.42618 1009.531674 477304.6189
 -19478.86301 1232.629786 477064.9073
 -25074.67705 1625.080298 476802.3605
 -28432.87488 2262.48717 476611.2924
 28202.17215 -2058.104989 476625.9256
 24274.4625 -4953.309929 476820.8117
 18910.3465 -6167.052465 477049.5127
 11943.15252 -6876.794308 477265.0648
 4077.385593 -7209.618756 477392.1529
 -4077.472172 -7209.620453 477392.1521
 -11943.23985 -6876.799525 477265.0626
 -18910.43431 -6167.060358 477049.5091
 -24274.55061 -4953.319189 476820.8071
 -28202.26056 -2058.115093 476625.9204
 0 0 0
 21881.61282 -11928.00169 476813.1595
 17767.15316 -12771.10772 476962.3658
 11201.33387 -13880.77082 477130.7217
 3822.060096 -14430.46588 477230.5782
 -3822.145655 -14430.46811 477230.5775
 -11201.4201 -13880.77551 477130.7196
 -17767.24046 -12771.11653 476962.3623
 -21881.70083 -11928.01269 476813.1552
 0 0 -0
 0 0 0
 20823.12013 -15919.47706 476743.9976
 16900.95111 -16937.79304 476864.069
 9949.06788 -19284.62745 476970.639
 3389.277002 -20069.39113 477029.9819
 -3389.359732 -20069.39255 477029.9813
 -9949.152037 -19284.63229 476970.6371
 -16901.03725 -16937.80211 476864.0656
 -20823.20709 -15919.48867 476743.9934
 0 0 -0
 0 0 0
 0 0 0
 0 0 0
 7001.210015 -23235.45718 476846.9019
 2715.583751 -23463.46744 476879.4005
 -2715.663459 -23463.46871 476879.4
 -7001.290989 -23235.46001 476846.9006
 0 0 -0
 0 0 -0
 0 0 -0
 0 0 0
 0 0 0
 0 0 0
 5592.512171 27446.11658 476641.6954
 2171.076644 27605.7529 476660.3404
 -2171.151721 27605.75223 476660.3401
 -5592.586715 27446.11543 476641.6946
 0 0 -0
 0 0 -0
 0 0 -0
 0 0 0
 16803.85885 21555.68194 476681.0823
 13610.29846 22375.30036 476745.1909
 7985.331045 24330.0623 476776.8386
 2720.41592 24996.81693 476801.4574
 -2720.491118 24996.81633 476801.457
 -7985.405611 24330.06021 476776.8375
 -13610.37367 22375.29826 476745.1888
 -16803.93339 21555.6808 476681.0797
 0 0 -0
 0 0 0
 17586.48133 18425.05101 476784.1277
 14308.34935 19142.0061 476865.522
 9033.468904 20114.46945 476954.5847
 3085.866293 20610.59165 477008.9645
 -3085.94239 20610.59085 477008.9641
 -9033.545193 20114.46794 476954.5833
 -14308.42496 19142.00418 476865.5198
 -17586.55728 18425.04897 476784.125
 0 0 -0
 22623.43992 10381.87797 476814.7102
 19495.15666 12820.33406 476893.5407
 15250.2749 13900.19297 477017.9085
 9667.168167 14561.26815 477143.9894
 3307.228599 14881.73141 477220.5649
 -3307.305681 14881.73037 477220.5644
 -9667.24537 14561.26609 477143.9879
 -15250.35306 13900.19003 477017.9061
 -19495.2339 12820.33129 476893.5377
 -22623.51772 10381.87508 476814.7066
 22779.37606 6995.682315 476868.988
 20145.91673 7574.094057 476978.6645
 15728.35959 7972.056333 477138.278
 9971.082656 8219.920404 477289.0966
 3411.950223 8339.678601 477378.9686
 -3412.028543 8339.678096 477378.968
 -9971.161634 8219.918009 477289.095
 -15728.43825 7972.052622 477138.2755
 -20145.99569 7574.089161 476978.6613
 -22779.45524 6995.6774 476868.9843
 22760.84117 2672.709396 476913.6945
 20135.79825 2144.141737 477034.405
 15722.19791 1807.210394 477201.6532
 9967.800593 1609.421546 477357.2289
 3410.947877 1517.448173 477449.4047
 -3411.027605 1517.446547 477449.4042
 -9967.880047 1609.418371 477357.2273
 -15722.27747 1807.205315 477201.6506
 -20135.87796 2144.135738 477034.4017
 -22760.92102 2672.702899 476913.6908
 22574.34437 -752.4364979 476929.454
 19465.4059 -3118.37658 477056.8572
 15228.85902 -4143.225494 477203.0876
 9656.030213 -4759.920599 477342.6186
 3303.909805 -5055.059295 477425.8077
 -3303.989501 -5055.060962 477425.8071
 -9656.110161 -4759.924669 477342.6169
 -15228.93921 -4143.231999 477203.085
 -19465.48589 -3118.385077 477056.8539
 -22574.42468 -752.4447766 476929.4502
 0 0 0
 17509.82374 -8715.363816 477063.2241
 14259.28811 -9422.695662 477157.9998
 9011.79536 -10361.47962 477266.4859
 3079.561845 -10836.64907 477331.0744
 -3079.640463 -10836.6503 477331.0739
 -9011.874362 -10361.48365 477266.4843
 -14259.36831 -9422.70281 477157.9973
 -17509.90428 -8715.372392 477063.221
 0 0 -0
 0 0 0
 16653.84345 -11898.65031 477025.0967
 13532.8923 -12717.45443 477102.7127
 7954.972152 -14626.44092 477173.613
 2710.029095 -15280.67212 477211.7225
 -2710.106107 -15280.6734 477211.722
 -7955.049772 -14626.44534 477173.6116
 -13532.97188 -12717.46174 477102.7103
 -16653.92386 -11898.66005 477025.0937
 0 0 -0
 0 0 0
 0 0 0
 0 0 0
 5542.84228 -17746.91758 477101.8708
 2152.258977 -17929.7208 477122.3786
 -2152.336255 -17929.72189 477122.3782
 -5542.918668 -17746.92008 477101.8698
 0 0 -0
 0 0 -0
 0 0 -0
 0 0 0
 0 0 0
 0 0 0
 4363.337251 22427.92599 476916.9956
 1694.064582 22544.93461 476928.43
 -1694.131767 22544.93444 476928.4298
 -4363.403808 22427.92472 476916.9951
 0 0 -0
 0 0 -0
 0 0 -0
 0 0 0
 13192.9793 17805.36475 476949.4581
 10677.41999 18435.49912 476988.4657
 6253.347017 19977.22785 477004.9028
 2129.357226 20504.68206 477018.7576
 -2129.42518 20504.68134 477018.7574
 -6253.414532 19977.22677 477004.902
 -10677.48759 18435.4975 476988.4642
 -13193.04656 17805.36423 476949.4563
 0 0 -0
 0 0 0
 13788.36424 15347.03055 477018.051
 11223.68638 15909.19561 477066.8692
 7088.878963 16684.69064 477119.7336
 2422.526336 17084.3045 477152.1028
 -2422.594144 17084.3038 477152.1025
 -7088.946421 16684.689 477119.7327
 -11223.75446 15909.19425 477066.8676
 -13788.4313 15347.02931 477018.0491
 0 0 -0
 17738.40946 9008.753908 477049.3292
 15283.7532 10939.74497 477093.9113
 11971.01153 11801.77559 477167.9833
 7599.971104 12336.23056 477244.0981
 2602.55549 12598.10974 477290.6721
 -2602.624022 12598.10887 477290.6717
 -7600.039634 12336.22894 477244.097
 -11971.07985 11801.77374 477167.9816
 -15283.82198 10939.74324 477093.9091
 -17738.47819 9008.751822 477049.3267
 17850.87751 6373.79568 477087.6148
 15794.65225 6832.931891 477153.7606
 12353.24613 7152.238561 477250.5779
 7847.026236 7353.683653 477342.8734
 2688.440524 7452.001747 477398.2732
 -2688.510212 7452.001444 477398.2728
 -7847.095555 7353.682004 477342.8723
 -12353.316 7152.235844 477250.5761
 -15794.72162 6832.928828 477153.7584
 -17850.94637 6373.791636 477087.6123
 17830.55274 3006.297417 477121.4781
 15782.57115 2586.694495 477196.0716
 12345.46171 2315.315386 477298.7536
 7842.709589 2153.172467 477394.7288
 2687.085289 2076.742154 477451.9222
 -2687.155589 2076.741026 477451.9218
 -7842.779839 2153.170088 477394.7276
 -12345.53161 2315.312016 477298.7518
 -15782.64093 2586.690075 477196.0693
 -17830.62177 3006.29244 477121.4755
 17684.71938 336.475538 477136.2581
 15248.32254 -1530.364445 477217.9983
 11944.89697 -2348.872676 477308.7822
 7585.8204 -2848.704697 477395.2362
 2598.206066 -3090.724569 477446.9269
 -2598.277181 -3090.725884 477446.9265
 -7585.890937 -2848.707741 477395.235
 -11944.96737 -2348.878057 477308.7804
 -15248.39351 -1530.370948 477217.9961
 -17684.78881 336.4695067 477136.2555
 0 0 0
 13703.22217 -5920.751775 477230.5917
 11167.49226 -6480.745746 477289.3864
 7062.53894 -7229.851503 477357.0164
 2414.615752 -7612.967099 477397.197
 -2414.686611 -7612.968209 477397.1966
 -7062.609398 -7229.854447 477357.0153
 -11167.56351 -6480.750629 477289.3846
 -13703.29464 -5920.758144 477230.5896
 0 0 -0
 0 0 0
 13033.73732 -8419.937909 477211.7954
 10591.52861 -9054.605431 477260.6258
 6217.404378 -10553.11161 477306.8688
 2117.052792 -11070.72075 477330.9424
 -2117.12291 -11070.7221 477330.942
 -6217.474045 -10553.11517 477306.8678
 -10591.59955 -9054.61128 477260.6241
 -13033.81037 -8419.945338 477211.7932
 0 0 -0
 0 0 0
 0 0 0
 0 0 0
 4309.32688 -12993.15131 477267.7226
 1673.545398 -13134.46202 477280.3751
 -1673.615433 -13134.46313 477280.3748
 -4309.395964 -12993.15362 477267.7219
 0 0 -0
 0 0 -0
 0 0 -0
 0 0 0
 0 0 0
 0 0 0
 3365.121149 18284.43902 477101.9037
 1306.321873 18367.22212 477108.8031
 -1306.381725 18367.22216 477108.8029
 -3365.180519 18284.43802 477101.9034
 0 0 -0
 0 0 -0
 0 0 -0
 0 0 0
 10217.61878 14706.48883 477128.0654
 8258.269024 15180.76104 477151.1467
 4827.976903 16374.20078 477158.7236
 1642.964406 16780.33179 477166.2105
 -1643.024229 16780.33156 477166.2103
 -4828.036351 16374.19988 477158.723
 -8258.329479 15180.76048 477151.1457
 -10217.67873 14706.48911 477128.0641
 0 0 -0
 0 0 0
 10658.96373 12800.31993 477173.3538
 8671.6527 13227.39625 477201.9591
 5473.836481 13826.64325 477232.3672
 1870.208097 14136.56518 477251.0148
 -1870.267507 14136.56522 477251.0146
 -5473.896474 13826.64197 477232.3666
 -8671.712004 13227.39542 477201.958
 -10659.02321 12800.31971 477173.3525
 0 0 -0
 13715.73825 7883.889405 477201.8379
 11806.52982 9384.402315 477225.7434
 9244.764594 10052.9334 477268.6289
 5869.57548 10468.86562 477313.1281
 2010.290701 10673.5703 477340.4497
 -2010.350356 10673.56939 477340.4495
 -5869.63495 10468.86484 477313.1274
 -9244.824506 10052.93238 477268.6278
 -11806.58871 9384.401582 477225.7419
 -13715.79676 7883.887654 477201.8363
 13793.62366 5858.405832 477228.7568
 12196.08174 6215.299127 477267.7414
 9538.121948 6464.045646 477324.9539
 6060.991104 6621.638091 477379.6074
 2077.209127 6698.886893 477412.4856
 -2077.268974 6698.886416 477412.4854
 -6061.050869 6621.637113 477379.6067
 -9538.181373 6464.044544 477324.9528
 -12196.14103 6215.297319 477267.7399
 -13793.683 5858.4033 477228.7551
 13772.55145 3266.88941 477254.1415
 12183.03323 2942.532263 477299.4726
 9529.484454 2732.306931 477361.0737
 6056.111353 2605.899594 477418.479
 2075.65854 2545.95659 477452.7003
 -2075.718812 2545.955549 477452.7001
 -6056.171093 2605.898087 477418.4783
 -9529.544006 2732.305117 477361.0726
 -12183.09243 2942.529891 477299.4711
 -13772.61081 3266.886357 477254.1398
 13660.16082 1209.256682 477267.0207
 11768.32767 -233.0222481 477318.8907
 9216.243083 -866.1210207 477374.2578
 5853.819082 -1254.61566 477426.4656
 2005.380474 -1443.60785 477457.6062
 -2005.441362 -1443.608215 477457.606
 -5853.87967 -1254.617907 477426.4648
 -9216.303406 -866.1242073 477374.2566
 -11768.38709 -233.0261808 477318.8893
 -13660.22021 1209.253203 477267.019
 0 0 0
 10570.05578 -3626.707912 477333.2088
 8612.04587 -4056.4456 477369.0912
 5445.111672 -4634.485513 477410.4561
 1861.456305 -4931.14463 477434.9067
 -1861.517351 -4931.145764 477434.9064
 -5445.172733 -4634.487204 477410.4554
 -8612.106768 -4056.448245 477369.0901
 -10570.11691 -3626.711771 477333.2074
 0 0 -0
 0 0 0
 10055.07612 -5566.379678 477325.6563
 8168.618522 -6048.458127 477355.8014
 4789.3236 -7200.81597 477385.6742
 1629.72021 -7598.929214 477400.7453
 -1629.781155 -7598.930698 477400.745
 -4789.384072 -7200.818837 477385.6735
 -8168.679486 -6048.461656 477355.8003
 -10055.1371 -5566.384222 477325.655
 0 0 -0
 0 0 0
 0 0 0
 0 0 0
 3309.376167 -9091.616105 477365.9622
 1285.108031 -9199.138328 477373.6436
 -1285.17012 -9199.138848 477373.6435
 -3309.437252 -9091.618401 477365.9617
 0 0 -0
 0 0 -0
 0 0 -0
 0 0 0
 0 0 0
 0 0 0
 2576.612919 14975.91381 477222.1227
 1000.00237 15032.80379 477226.2421
 -1000.054804 15032.80436 477226.2419
 -2576.664838 14975.91302 477222.1224
 0 0 -0
 0 0 -0
 0 0 -0
 0 0 0
 7846.11081 12230.52443 477242.8356
 6331.156657 12583.28156 477256.1668
 3695.015309 13497.69416 477258.8715
 1256.608459 13806.00206 477262.7018
 -1256.661278 13806.00208 477262.7017
 -3695.068331 13497.69365 477258.8711
 -6331.210692 12583.2819 477256.1661
 -7846.165374 12230.52565 477242.8347
 0 0 -0
 0 0 0
 8167.550019 10766.05545 477272.7255
 6638.095063 11085.03043 477289.1462
 4185.752824 11540.46003 477306.1581
 1429.374931 11776.07199 477316.6164
 -1429.427473 11776.07135 477316.6163
 -4185.804783 11540.45973 477306.1576
 -6638.147682 11085.03031 477289.1455
 -8167.602734 10766.05637 477272.7245
 0 0 -0
 10512.05398 6989.017806 477297.1
 9037.271439 8142.743203 477309.0139
 7069.209253 8653.459595 477333.2329
 4485.195078 8970.700513 477358.6501
 1535.660402 9126.923122 477374.2895
 -1535.71121 9126.922757 477374.2894
 -4485.246455 8970.700372 477358.6496
 -7069.260592 8653.45933 477333.2321
 -9037.322765 8142.742966 477309.0129
 -10512.10424 6989.016514 477297.0989
 10564.19075 5444.639934 477316.0641
 9329.544253 5719.1393 477338.5825
 7289.258163 5910.27336 477371.7699
 4629.46684 6031.319931 477403.4588
 1586.263827 6090.69621 477422.5157
 -1586.314291 6090.695685 477422.5155
 -4629.517275 6031.319703 477403.4584
 -7289.308012 5910.273832 477371.7691
 -9329.594427 5719.138403 477338.5815
 -10564.24061 5444.638355 477316.063
 10543.22628 3465.468434 477335
 9316.405432 3218.956116 477362.2463
 7280.488617 3060.093885 477398.682
 4624.484337 2964.693569 477432.3994
 1584.674715 2919.436741 477452.4447
 -1584.725352 2919.436026 477452.4446
 -4624.534127 2964.693511 477432.399
 -7280.537556 3060.093312 477398.6813
 -9316.45426 3218.955614 477362.2454
 -10543.27566 3465.4679 477334.9989
 10456.79556 1890.586386 477345.7368
 8998.829225 790.8375494 477378.5363
 7040.384675 310.1721131 477411.9899
 4469.179162 15.49589184 477443.083
 1530.649653 -127.8741851 477461.5294
 -1530.700297 -127.8739334 477461.5292
 -4469.228977 15.49464339 477443.0825
 -7040.433835 310.1712525 477411.9891
 -8998.878218 790.8367455 477378.5354
 -10456.84458 1890.585879 477345.7357
 0 0 0
 8078.889641 -1808.041843 477392.2222
 6578.366563 -2132.664105 477413.917
 4156.740019 -2570.427648 477438.9864
 1420.499984 -2794.994602 477453.7061
 -1420.550887 -2794.995441 477453.706
 -4156.789684 -2570.42818 477438.9859
 -6578.415984 -2132.664378 477413.9163
 -8078.9388 -1808.042739 477392.2214
 0 0 -0
 0 0 0
 7685.100063 -3302.116729 477390.7273
 6241.769972 -3664.686534 477409.1345
 3656.162813 -4540.06615 477428.4151
 1243.291846 -4841.649392 477437.8326
 -1243.343833 -4841.650278 477437.8324
 -3656.213053 -4540.067295 477428.4147
 -6241.819831 -3664.687984 477409.1338
 -7685.149914 -3302.118012 477390.7265
 0 0 -0
 0 0 0
 0 0 0
 0 0 0
 2521.275727 -5994.841205 477419.7067
 978.9278072 -6076.555558 477424.3275
 -978.9817464 -6076.555581 477424.3274
 -2521.326889 -5994.843399 477419.7064
 0 0 -0
 0 0 -0
 0 0 -0
 0 0 0
 0 0 0
 0 0 0
 1964.998669 12388.64681 477299.2054
 762.4275408 12426.56938 477301.6555
 -762.4728629 12426.56991 477301.6554
 -1965.043634 12388.64633 477299.2053
 0 0 -0
 0 0 -0
 0 0 -0
 0 0 0
 5995.710975 10293.09503 477315.3831
 4829.136235 10553.81791 477322.9176
 2813.750208 11250.88023 477323.1314
 956.3365976 11483.32145 477324.9313
 -956.3825727 11483.32166 477324.9312
 -2813.796106 11250.88078 477323.1311
 -4829.182949 10553.819 477322.9171
 -5995.75812 10293.09726 477315.3825
 0 0 -0
 0 0 0
 6226.676111 9175.330876 477335.2209
 5054.616586 9411.508716 477344.4727
 3183.231201 9754.977191 477353.725
 1086.321491 9932.457641 477359.4426
 -1086.366465 9932.457473 477359.4426
 -3183.276524 9754.977167 477353.7247
 -5054.661952 9411.509411 477344.4722
 -6226.721746 9175.332098 477335.2203
 0 0 -0
 8014.816434 6289.488365 477355.2936
 6880.917851 7171.890685 477360.5432
 5375.526647 7559.448737 477373.8888
 3407.093663 7799.265736 477388.1382
 1165.902664 7917.21222 477396.931
 -1165.946359 7917.211751 477396.9309
 -3407.136909 7799.265915 477388.1379
 -5375.569514 7559.449246 477373.8883
 -6880.96097 7171.891063 477360.5426
 -8014.858165 6289.487248 477355.2929
 8048.586871 5117.970029 477368.7232
 7098.41287 5328.261509 477381.4968
 5538.675544 5474.580719 477400.4853
 3514.308458 5567.075043 477418.6094
 1203.582963 5612.407244 477429.4959
 -1203.624937 5612.407783 477429.4958
 -3514.349804 5567.075167 477418.6091
 -5538.717035 5474.581041 477400.4848
 -7098.45364 5328.262212 477381.4962
 -8048.627336 5117.969844 477368.7226
 8028.424598 3613.007172 477382.8253
 7085.915045 3427.813877 477399.111
 5530.393308 3309.838157 477420.4971
 3509.626398 3239.472171 477440.111
 1202.095827 3206.213083 477451.7216
 -1202.137173 3206.213086 477451.7215
 -3509.667135 3239.472233 477440.1107
 -5530.433141 3309.839696 477420.4966
 -7085.954453 3427.814779 477399.1104
 -8028.463792 3613.007992 477382.8246
 7961.659142 2411.816748 477391.5232
 6844.345259 1580.15278 477412.3264
 5348.191148 1219.176495 477432.4892
 3391.986469 998.7888484 477450.9065
 1161.195516 891.8458316 477461.755
 -1161.23653 891.8459812 477461.7549
 -3392.026683 998.7894736 477450.9062
 -5348.230376 1219.177837 477432.4888
 -6844.384117 1580.154355 477412.3258
 -7961.697975 2411.819044 477391.5225
 0 0 0
 6141.582828 -399.1122474 477424.3322
 4997.533958 -642.708941 477437.4125
 3155.718906 -970.9281084 477452.5841
 1077.940482 -1138.856903 477461.425
 -1077.981914 -1138.856477 477461.4249
 -3155.759019 -970.9277415 477452.5838
 -4997.573636 -642.7077101 477437.4121
 -6141.6225 -399.110607 477424.3317
 0 0 -0
 0 0 0
 5840.173273 -1545.186659 477425.7807
 4743.343964 -1816.989286 477436.9807
 2776.796334 -2477.185678 477449.4992
 943.6760558 -2703.89303 477455.4113
 -943.7184529 -2703.893392 477455.4112
 -2776.837377 -2477.186151 477449.4989
 -4743.384245 -1816.988386 477436.9803
 -5840.213668 -1545.185646 477425.7802
 0 0 -0
 0 0 0
 0 0 0
 0 0 0
 1911.814081 -3591.069397 477446.6677
 742.176852 -3653.723941 477449.4432
 -742.2204581 -3653.723991 477449.4431
 -1911.855751 -3591.070581 477446.6675
 0 0 -0
 0 0 -0
 0 0 -0
 0 0 0
 0 0 0
 0 0 0
 1495.795273 10387.42662 477348.6517
 580.2048684 10411.68585 477350.1141
 -580.2419269 10411.68589 477350.1141
 -1495.832135 10387.42637 477348.6516
 0 0 -0
 0 0 -0
 0 0 -0
 0 0 0
 4570.568241 8792.840276 477361.1496
 3673.736733 8984.886721 477365.3179
 2137.049862 9515.213731 477364.3944
 725.9602502 9689.971572 477365.1105
 -725.9974643 9689.972489 477365.1104
 -2137.087909 9515.213782 477364.3942
 -3673.776005 8984.888568 477365.3176
 -4570.609331 8792.84265 477361.1492
 0 0 -0
 0 0 0
 4734.504574 7943.88215 477374.4343
 3838.4116 8118.046748 477379.5505
 2414.044255 8376.434722 477384.4143
 823.2556499 8509.753536 477387.4502
 -823.2930695 8509.752994 477387.4502
 -2414.082033 8376.435336 477384.4141
 -3838.450523 8118.047418 477379.5501
 -4734.54434 7943.884302 477374.4338
 0 0 -0
 6094.045121 5745.128212 477390.5397
 5224.578878 6418.753318 477392.265
 4076.085381 6712.407632 477399.4139
 2580.54228 6893.335075 477407.2622
 882.5068128 6982.161739 477412.13
 -882.542102 6982.161997 477412.13
 -2580.578541 6893.335114 477407.262
 -4076.122083 6712.408725 477399.4136
 -5224.615172 6418.753351 477392.2646
 -6094.079865 5745.126913 477390.5393
 6115.171648 4859.279389 477400.1083
 5386.01092 5020.450843 477407.2237
 4196.584722 5132.783181 477417.9663
 2659.84101 5203.71635 477428.2332
 910.4154491 5238.453709 477434.3945
 -910.4491819 5238.453525 477434.3944
 -2659.875347 5203.717194 477428.233
 -4196.618551 5132.784237 477417.966
 -5386.044895 5020.451435 477407.2233
 -6115.205704 4859.280145 477400.1078
 6096.408362 3717.261253 477410.6064
 5374.787037 3579.362537 477420.3296
 4189.32727 3493.018787 477432.8431
 2655.813761 3442.118953 477444.2059
 909.1521888 3418.235494 477450.8984
 -909.1853582 3418.236297 477450.8984
 -2655.846866 3442.119619 477444.2057
 -4189.360045 3493.021014 477432.8428
 -5374.819575 3579.364345 477420.3292
 -6096.441564 3717.263413 477410.6059
 6044.523274 2801.963933 477417.5154
 5191.693816 2176.36955 477430.8128
 4051.797211 1907.078893 477442.999
 2567.364506 1743.634365 477453.9137
 878.4556302 1664.668649 477460.29
 -878.4877914 1664.668533 477460.2899
 -2567.396625 1743.636288 477453.9135
 -4051.828817 1907.081822 477442.9987
 -5191.725442 2176.372705 477430.8125
 -6044.555274 2801.967329 477417.515
 0 0 0
 4655.86493 673.1790057 477440.8247
 3786.379508 490.5969994 477448.7344
 2389.588192 245.7378864 477457.9571
 815.9062141 120.951415 477463.2876
 -815.9382571 120.9522053 477463.2875
 -2389.620107 245.7388585 477457.9569
 -3786.410717 490.599678 477448.7341
 -4655.895281 673.1824434 477440.8244
 0 0 -0
 0 0 0
 4423.956858 -204.7763972 477443.4605
 3594.435644 -408.7546219 477450.2951
 2103.808321 -904.6629875 477458.508
 714.5848047 -1074.537378 477462.2561
 -714.6183158 -1074.537069 477462.2561
 -2103.840917 -904.6626453 477458.5079
 -3594.46734 -408.7520735 477450.2948
 -4423.987904 -204.7738735 477443.4602
 0 0 -0
 0 0 0
 0 0 0
 0 0 0
 1446.275865 -1755.31294 477458.583
 561.3692973 -1804.109061 477460.2615
 -561.4037675 -1804.108543 477460.2615
 -1446.309189 -1755.313734 477458.5829
 0 0 -0
 0 0 -0
 0 0 -0
 0 0 0
 0 0 0
 0 0 0
 1137.61031 8840.689276 477380.7907
 441.1290049 8855.185711 477381.6737
 -441.1590638 8855.18601 477381.6737
 -1137.641062 8840.688966 477380.7907
 0 0 -0
 0 0 -0
 0 0 -0
 0 0 0
 3479.998819 7630.165508 477390.345
 2790.69528 7771.271313 477392.5959
 1620.631016 8174.531097 477391.2671
 550.2820171 8305.806216 477391.4349
 -550.3136364 8305.806257 477391.4348
 -1620.663378 8174.531505 477391.267
 -2790.729369 7771.272654 477392.5957
 -3480.034181 7630.167458 477390.3447
 0 0 -0
 0 0 0
 3594.86151 6988.301902 477399.3212
 2910.612358 7116.487225 477402.0897
 1827.987354 7310.921333 477404.5247
 622.958744 7411.134141 477406.0728
 -622.9904072 7411.134027 477406.0727