# OOMMF OVF 2.0
#
# Segment count: 1
#
# Begin: Segment
# Begin: Header
#
# Title: Oxs_MinDriver::Magnetization
# Desc: Oxs vector field output
# Desc:  MIF source file: F:/Bogdan/UNIC/2022/Master_degree/Simulation_samples/Cylinder0_5000 1.mif
# Desc:  Iteration: 1652, State id: 7250
# Desc:  Stage: 5, Stage iteration: 71
# Desc:  Stage simulation time: 0 s
# Desc:  Total simulation time: -2 s
# meshunit: m
# meshtype: rectangular
# xbase: -8.9999999999999995e-09
# ybase: -8.9999999999999995e-09
# zbase: -8.6999999999999998e-08
# xnodes: 10
# ynodes: 10
# znodes: 88
# xstepsize: 2.0000000000000001e-09
# ystepsize: 2.0000000000000001e-09
# zstepsize: 2.0000000000000001e-09
# xmin: -1e-08
# ymin: -1e-08
# zmin: -8.7999999999999994e-08
# xmax: 1e-08
# ymax: 1e-08
# zmax: 8.800000000000002e-08
# valuedim: 3
# valuelabels: Magnetization_x Magnetization_y Magnetization_z
# valueunits: A/m A/m A/m
#
# End: Header
#
# Begin: Data Text
 0 0 0
 0 0 0
 0 0 0
 8098.541538 30449.1705 476423.2708
 3047.08833 30659.33842 476468.8778
 -3047.08833 30659.33842 476468.8778
 -8098.541538 30449.1705 476423.2708
 0 0 -0
 0 0 -0
 0 0 -0
 0 0 0
 22622.14614 22622.14614 476390.9616
 17969.77882 23574.56468 476542.9658
 10640.26625 25572.28001 476659.9569
 3596.091171 26107.31107 476736.1406
 -3596.091171 26107.31108 476736.1406
 -10640.26625 25572.28001 476659.9569
 -17969.77882 23574.56469 476542.9658
 -22622.14614 22622.14614 476390.9616
 0 0 -0
 0 0 0
 23574.56469 17969.77881 476542.9658
 18533.5357 18533.53571 476744.0481
 11483.28842 19307.79334 476935.2309
 3882.373929 19647.05924 477043.8046
 -3882.373929 19647.05922 477043.8046
 -11483.28842 19307.79336 476935.2309
 -18533.5357 18533.5357 476744.0481
 -23574.56469 17969.77882 476542.9658
 0 0 -0
 30449.1705 8098.541536 476423.2708
 25572.28001 10640.26626 476659.9569
 19307.79336 11483.28841 476935.2309
 11938.7336 11938.73361 477165.3849
 4033.972691 12138.83631 477292.622
 -4033.972691 12138.83633 477292.622
 -11938.7336 11938.73359 477165.3849
 -19307.79336 11483.28843 476935.2309
 -25572.28001 10640.26625 476659.9569
 -30449.1705 8098.541538 476423.2708
 30659.33842 3047.088333 476468.8778
 26107.31108 3596.091162 476736.1406
 19647.05922 3882.373944 477043.8046
 12138.83633 4033.97267 477292.622
 4100.540855 4100.540879 477428.7826
 -4100.540855 4100.540851 477428.7826
 -12138.83633 4033.972695 477292.622
 -19647.05922 3882.373926 477043.8046
 -26107.31108 3596.091173 476736.1406
 -30659.33842 3047.088329 476468.8778
 30659.33842 -3047.088332 476468.8778
 26107.31107 -3596.091162 476736.1406
 19647.05924 -3882.373944 477043.8046
 12138.83631 -4033.97267 477292.622
 4100.540874 -4100.540879 477428.7826
 -4100.540875 -4100.54085 477428.7826
 -12138.83631 -4033.972695 477292.622
 -19647.05924 -3882.373925 477043.8046
 -26107.31107 -3596.091173 476736.1406
 -30659.33842 -3047.088329 476468.8778
 30449.1705 -8098.541536 476423.2708
 25572.28001 -10640.26626 476659.9569
 19307.79334 -11483.28841 476935.2309
 11938.73361 -11938.73361 477165.3849
 4033.972673 -12138.83631 477292.622
 -4033.972673 -12138.83633 477292.622
 -11938.73361 -11938.73359 477165.3849
 -19307.79334 -11483.28842 476935.2309
 -25572.28001 -10640.26625 476659.9569
 -30449.1705 -8098.541538 476423.2708
 0 0 0
 23574.56468 -17969.77881 476542.9658
 18533.53571 -18533.53571 476744.0481
 11483.28841 -19307.79334 476935.2309
 3882.373942 -19647.05924 477043.8046
 -3882.373942 -19647.05922 477043.8046
 -11483.28841 -19307.79336 476935.2309
 -18533.53571 -18533.5357 476744.0481
 -23574.56468 -17969.77882 476542.9658
 0 0 -0
 0 0 0
 22622.14614 -22622.14614 476390.9616
 17969.77881 -23574.56468 476542.9658
 10640.26626 -25572.28001 476659.9569
 3596.091163 -26107.31107 476736.1406
 -3596.091163 -26107.31108 476736.1406
 -10640.26626 -25572.28 476659.9569
 -17969.77881 -23574.56469 476542.9658
 -22622.14614 -22622.14614 476390.9616
 0 0 -0
 0 0 0
 0 0 0
 0 0 0
 8098.541536 -30449.1705 476423.2708
 3047.088332 -30659.33842 476468.8778
 -3047.088332 -30659.33842 476468.8778
 -8098.541536 -30449.1705 476423.2708
 0 0 -0
 0 0 -0
 0 0 -0
 0 0 0
 0 0 0
 0 0 0
 6771.848893 26293.98592 476691.3463
 2606.532806 26489.3874 476721.5011
 -2606.532806 26489.38741 476721.5011
 -6771.848893 26293.98591 476691.3463
 0 0 -0
 0 0 -0
 0 0 -0
 0 0 0
 19499.27394 19499.27393 476666.999
 15702.06492 20399.15485 476769.5365
 9274.652145 22423.40095 476846.9809
 3154.562103 23040.01856 476897.3449
 -3154.562103 23040.01853 476897.3449
 -9274.652145 22423.40098 476846.9809
 -15702.06492 20399.15484 476769.5365
 -19499.27394 19499.27394 476666.999
 0 0 -0
 0 0 0
 20399.15484 15702.06494 476769.5365
 16354.90172 16354.90169 476903.4553
 10222.92084 17208.23027 477044.2747
 3471.709755 17604.60014 477126.7091
 -3471.709755 17604.60019 477126.7091
 -10222.92084 17208.23022 477044.2747
 -16354.90172 16354.90172 476903.4553
 -20399.15484 15702.06492 476769.5365
 0 0 -0
 26293.98591 6771.848898 476691.3463
 22423.40098 9274.652124 476846.9809
 17208.23023 10222.92088 477044.2747
 10740.9922 10740.99216 477222.3103
 3644.523149 10972.61174 477323.9891
 -3644.523149 10972.61167 477323.9891
 -10740.99221 10740.99222 477222.3103
 -17208.23023 10222.92083 477044.2747
 -22423.40098 9274.652149 476846.9809
 -26293.98591 6771.848892 476691.3463
 26489.38741 2606.532798 476721.5011
 23040.01853 3154.562129 476897.3449
 17604.60018 3471.709712 477126.7091
 10972.61168 3644.523206 477323.9891
 3721.191266 3721.1912 477434.9974
 -3721.191266 3721.191279 477434.9974
 -10972.61168 3644.523137 477323.9891
 -17604.60018 3471.709765 477126.7091
 -23040.01853 3154.562097 476897.3449
 -26489.38741 2606.532808 476721.5011
 26489.3874 -2606.532798 476721.5011
 23040.01855 -3154.562129 476897.3449
 17604.60014 -3471.709712 477126.7091
 10972.61173 -3644.523206 477323.9891
 3721.191212 -3721.1912 477434.9974
 -3721.191212 -3721.191279 477434.9974
 -10972.61173 -3644.523136 477323.9891
 -17604.60014 -3471.709765 477126.7091
 -23040.01855 -3154.562097 476897.3449
 -26489.3874 -2606.532808 476721.5011
 26293.98592 -6771.848898 476691.3463
 22423.40096 -9274.652124 476846.9809
 17208.23026 -10222.92088 477044.2747
 10740.99216 -10740.99215 477222.3103
 3644.523196 -10972.61174 477323.9891
 -3644.523196 -10972.61167 477323.9891
 -10740.99216 -10740.99222 477222.3103
 -17208.23026 -10222.92083 477044.2747
 -22423.40096 -9274.652149 476846.9809
 -26293.98592 -6771.848892 476691.3463
 0 0 0
 20399.15485 -15702.06494 476769.5365
 16354.9017 -16354.90169 476903.4553
 10222.92087 -17208.23027 477044.2747
 3471.709719 -17604.60013 477126.7091
 -3471.709719 -17604.60019 477126.7091
 -10222.92087 -17208.23022 477044.2747
 -16354.9017 -16354.90172 476903.4553
 -20399.15485 -15702.06492 476769.5365
 0 0 -0
 0 0 0
 19499.27393 -19499.27393 476666.999
 15702.06493 -20399.15485 476769.5365
 9274.652127 -22423.40095 476846.9809
 3154.562125 -23040.01856 476897.3449
 -3154.562125 -23040.01853 476897.3449
 -9274.652127 -22423.40098 476846.9809
 -15702.06493 -20399.15484 476769.5365
 -19499.27393 -19499.27394 476666.999
 0 0 -0
 0 0 0
 0 0 0
 0 0 0
 6771.848897 -26293.98592 476691.3463
 2606.532799 -26489.3874 476721.5011
 -2606.532799 -26489.38741 476721.5011
 -6771.848897 -26293.98591 476691.3463
 0 0 -0
 0 0 -0
 0 0 -0
 0 0 0
 0 0 0
 0 0 0
 5399.56182 21367.75487 476955.0661
 2091.438197 21533.28425 476973.5997
 -2091.438197 21533.28424 476973.5997
 -5399.56182 21367.75487 476955.0661
 0 0 -0
 0 0 -0
 0 0 -0
 0 0 0
 15840.11505 15840.11505 476938.2065
 12824.88379 16606.05806 477002.7594
 7563.936548 18362.16695 477050.8243
 2578.322861 18939.28655 477081.2582
 -2578.322861 18939.2866 477081.2582
 -7563.936548 18362.16691 477050.8243
 -12824.88379 16606.05808 477002.7594
 -15840.11505 15840.11505 476938.2065
 0 0 -0
 0 0 0
 16606.05807 12824.88377 477002.7594
 13445.1762 13445.17623 477085.2395
 8460.439457 14257.11261 477176.0964
 2883.843409 14653.8727 477230.3624
 -2883.843409 14653.87263 477230.3624
 -8460.439458 14257.11268 477176.0964
 -13445.1762 13445.17619 477085.2395
 -16606.05807 12824.88379 477002.7594
 0 0 -0
 21367.75487 5399.561813 476955.0661
 18362.16692 7563.936577 477050.8243
 14257.11267 8460.439405 477176.0964
 8976.859291 8976.859362 477295.1951
 3059.364913 9216.190428 477365.2411
 -3059.364913 9216.190527 477365.2411
 -8976.859291 8976.859276 477295.1951
 -14257.11267 8460.439469 477176.0964
 -18362.16692 7563.936541 477050.8243
 -21367.75487 5399.561822 476955.0661
 21533.28424 2091.438209 476973.5997
 18939.28659 2578.322824 477081.2582
 14653.87264 2883.843471 477230.3624
 9216.190509 3059.364831 477365.2411
 3139.631967 3139.63206 477443.3545
 -3139.631967 3139.631947 477443.3545
 -9216.19051 3059.364931 477365.2411
 -14653.87264 2883.843395 477230.3624
 -18939.28659 2578.32287 477081.2582
 -21533.28424 2091.438194 476973.5997
 21533.28425 -2091.438209 476973.5997
 18939.28656 -2578.322824 477081.2582
 14653.87269 -2883.843471 477230.3624
 9216.190445 -3059.36483 477365.2411
 3139.632041 -3139.63206 477443.3545
 -3139.632041 -3139.631946 477443.3545
 -9216.190444 -3059.364931 477365.2411
 -14653.87269 -2883.843394 477230.3624
 -18939.28656 -2578.32287 477081.2582
 -21533.28425 -2091.438194 476973.5997
 21367.75487 -5399.561812 476955.0661
 18362.16694 -7563.936578 477050.8243
 14257.11262 -8460.439404 477176.0964
 8976.859348 -8976.859363 477295.1951
 3059.364847 -9216.190426 477365.2411
 -3059.364847 -9216.190528 477365.2411
 -8976.859349 -8976.859274 477295.1951
 -14257.11262 -8460.43947 477176.0964
 -18362.16694 -7563.93654 477050.8243
 -21367.75487 -5399.561821 476955.0661
 0 0 0
 16606.05806 -12824.88377 477002.7594
 13445.17623 -13445.17624 477085.2395
 8460.439415 -14257.11261 477176.0964
 2883.843459 -14653.8727 477230.3624
 -2883.843459 -14653.87262 477230.3624
 -8460.439415 -14257.11268 477176.0964
 -13445.17623 -13445.17619 477085.2395
 -16606.05806 -12824.88379 477002.7594
 0 0 -0
 0 0 0
 15840.11505 -15840.11505 476938.2065
 12824.88378 -16606.05806 477002.7594
 7563.936572 -18362.16695 477050.8243
 2578.322831 -18939.28655 477081.2582
 -2578.322831 -18939.2866 477081.2582
 -7563.936572 -18362.16691 477050.8243
 -12824.88378 -16606.05808 477002.7594
 -15840.11505 -15840.11504 476938.2065
 0 0 -0
 0 0 0
 0 0 0
 0 0 0
 5399.561814 -21367.75486 476955.0661
 2091.438207 -21533.28425 476973.5997
 -2091.438207 -21533.28424 476973.5997
 -5399.561814 -21367.75487 476955.0661
 0 0 -0
 0 0 -0
 0 0 -0
 0 0 0
 0 0 0
 0 0 0
 4201.066826 16804.83298 477149.6829
 1629.428146 16934.50828 477160.8101
 -1629.428146 16934.50829 477160.8101
 -4201.066826 16804.83297 477149.6829
 0 0 -0
 0 0 -0
 0 0 -0
 0 0 0
 12459.3307 12459.3307 477138.7654
 10102.01448 13066.71838 477178.2492
 5949.65993 14480.5728 477207.2777
 2028.71479 14960.32779 477225.2552
 -2028.71479 14960.32774 477225.2552
 -5949.65993 14480.57284 477207.2777
 -10102.01448 13066.71836 477178.2492
 -12459.3307 12459.3307 477138.7654
 0 0 -0
 0 0 0
 13066.71836 10102.0145 477178.2492
 10620.87598 10620.87595 477227.687
 6705.417099 11308.72765 477282.9573
 2290.275331 11654.8345 477316.2377
 -2290.275331 11654.83458 477316.2377
 -6705.417099 11308.72758 477282.9573
 -10620.87598 10620.87599 477227.687
 -13066.71836 10102.01448 477178.2492
 0 0 -0
 16804.83297 4201.066834 477149.6829
 14480.57283 5949.659899 477207.2777
 11308.72759 6705.417155 477282.9573
 7157.858786 7157.858711 477356.6815
 2446.61875 7373.496693 477400.7927
 -2446.618749 7373.496585 477400.7927
 -7157.858787 7157.858805 477356.6815
 -11308.72759 6705.417085 477282.9573
 -14480.57283 5949.659938 477207.2777
 -16804.83297 4201.066824 477149.6829
 16934.50829 1629.428134 477160.8101
 14960.32775 2028.71483 477225.2552
 11654.83456 2290.275265 477316.2377
 7373.496606 2446.618837 477400.7927
 2520.07285 2520.072751 477450.6988
 -2520.07285 2520.072874 477450.6988
 -7373.496605 2446.618728 477400.7927
 -11654.83456 2290.275348 477316.2377
 -14960.32775 2028.71478 477225.2552
 -16934.50829 1629.428149 477160.8101
 16934.50828 -1629.428133 477160.8101
 14960.32778 -2028.71483 477225.2552
 11654.83451 -2290.275265 477316.2377
 7373.496673 -2446.618837 477400.7927
 2520.072774 -2520.07275 477450.6988
 -2520.072774 -2520.072874 477450.6988
 -7373.496673 -2446.618727 477400.7927
 -11654.83451 -2290.275349 477316.2377
 -14960.32778 -2028.714779 477225.2552
 -16934.50828 -1629.428149 477160.8101
 16804.83298 -4201.066833 477149.6829
 14480.57281 -5949.659898 477207.2777
 11308.72764 -6705.417156 477282.9573
 7157.858728 -7157.858709 477356.6815
 2446.618816 -7373.496695 477400.7927
 -2446.618817 -7373.496583 477400.7927
 -7157.858727 -7157.858806 477356.6815
 -11308.72764 -6705.417084 477282.9573
 -14480.57281 -5949.659939 477207.2777
 -16804.83298 -4201.066824 477149.6829
 0 0 0
 13066.71837 -10102.0145 477178.2492
 10620.87595 -10620.87594 477227.687
 6705.417143 -11308.72765 477282.9573
 2290.27528 -11654.83449 477316.2377
 -2290.27528 -11654.83458 477316.2377
 -6705.417143 -11308.72758 477282.9573
 -10620.87595 -10620.87599 477227.687
 -13066.71837 -10102.01448 477178.2492
 0 0 -0
 0 0 0
 12459.3307 -12459.3307 477138.7654
 10102.01449 -13066.71838 477178.2492
 5949.659906 -14480.5728 477207.2777
 2028.714821 -14960.32779 477225.2552
 -2028.714821 -14960.32774 477225.2552
 -5949.659905 -14480.57284 477207.2777
 -10102.01449 -13066.71836 477178.2492
 -12459.3307 -12459.3307 477138.7654
 0 0 -0
 0 0 0
 0 0 0
 0 0 0
 4201.066832 -16804.83298 477149.6829
 1629.428136 -16934.50828 477160.8101
 -1629.428136 -16934.50829 477160.8101
 -4201.066832 -16804.83297 477149.6829
 0 0 -0
 0 0 -0
 0 0 -0
 0 0 0
 0 0 0
 0 0 0
 3220.899304 12966.70716 477277.0282
 1249.457183 13063.36854 477283.6249
 -1249.457183 13063.36853 477283.6249
 -3220.899304 12966.70717 477277.0282
 0 0 -0
 0 0 -0
 0 0 -0
 0 0 0
 9616.622316 9616.62232 477270.2719
 7795.315709 10078.98098 477293.954
 4584.290328 11176.20497 477311.1648
 1562.591293 11551.98134 477321.6749
 -1562.591293 11551.98139 477321.6749
 -4584.290328 11176.20493 477311.1648
 -7795.315709 10078.981 477293.954
 -9616.622316 9616.622314 477270.2719
 0 0 -0
 0 0 0
 10078.98099 7795.315696 477293.954
 8200.704131 8200.704163 477323.1277
 5182.715611 8745.551252 477355.7647
 1771.504995 9023.635236 477375.4362
 -1771.504995 9023.635165 477375.4362
 -5182.715612 8745.551313 477355.7647
 -8200.704131 8200.704122 477323.1277
 -10078.98099 7795.315713 477293.954
 0 0 -0
 12966.70716 3220.899298 477277.0282
 11176.20494 4584.290354 477311.1648
 8745.551298 5182.715565 477355.7647
 5548.111188 5548.111251 477399.5268
 1899.10533 5725.071629 477425.8982
 -1899.105331 5725.071724 477425.8982
 -5548.111187 5548.111168 477399.5268
 -8745.551299 5182.715626 477355.7647
 -11176.20494 4584.29032 477311.1648
 -12966.70716 3220.899307 477277.0282
 13063.36853 1249.457194 477283.6249
 11551.98138 1562.59126 477321.6749
 9023.635182 1771.505051 477375.4362
 5725.071701 1899.105258 477425.8982
 1960.063696 1960.063779 477455.9536
 -1960.063696 1960.063671 477455.9536
 -5725.071702 1899.105353 477425.8982
 -9023.635181 1771.504978 477375.4362
 -11551.98138 1562.591304 477321.6749
 -13063.36853 1249.45718 477283.6249
 13063.36854 -1249.457194 477283.6249
 11551.98135 -1562.591259 477321.6749
 9023.63522 -1771.505051 477375.4362
 5725.071651 -1899.105257 477425.8982
 1960.063753 -1960.063779 477455.9536
 -1960.063754 -1960.06367 477455.9536
 -5725.071651 -1899.105354 477425.8982
 -9023.635221 -1771.504977 477375.4362
 -11551.98135 -1562.591304 477321.6749
 -13063.36854 -1249.45718 477283.6249
 12966.70716 -3220.899298 477277.0282
 11176.20496 -4584.290355 477311.1648
 8745.551266 -5182.715563 477355.7647
 5548.111232 -5548.111252 477399.5268
 1899.10528 -5725.071627 477425.8982
 -1899.105279 -5725.071725 477425.8982
 -5548.111233 -5548.111167 477399.5268
 -8745.551265 -5182.715627 477355.7647
 -11176.20496 -4584.290319 477311.1648
 -12966.70716 -3220.899306 477277.0282
 0 0 0
 10078.98099 -7795.315696 477293.954
 8200.704154 -8200.704164 477323.1277
 5182.715579 -8745.55125 477355.7647
 1771.505034 -9023.635238 477375.4362
 -1771.505034 -9023.635163 477375.4362
 -5182.715578 -8745.551314 477355.7647
 -8200.704154 -8200.70412 477323.1277
 -10078.98099 -7795.315714 477293.954
 0 0 -0
 0 0 0
 9616.622319 -9616.62232 477270.2719
 7795.3157 -10078.98098 477293.954
 4584.290346 -11176.20497 477311.1648
 1562.59127 -11551.98134 477321.6749
 -1562.59127 -11551.98139 477321.6749
 -4584.290347 -11176.20493 477311.1648
 -7795.3157 -10078.981 477293.954
 -9616.622319 -9616.622314 477270.2719
 0 0 -0
 0 0 0
 0 0 0
 0 0 0
 3220.8993 -12966.70716 477277.0282
 1249.457191 -13063.36854 477283.6249
 -1249.457191 -13063.36853 477283.6249
 -3220.8993 -12966.70717 477277.0282
 0 0 -0
 0 0 -0
 0 0 -0
 0 0 0
 0 0 0
 0 0 0
 2449.624011 9900.455301 477355.0582
 950.1077972 9970.597947 477358.9381
 -950.1077972 9970.597956 477358.9381
 -2449.624011 9900.455296 477355.0582
 0 0 -0
 0 0 -0
 0 0 -0
 0 0 0
 7345.238817 7345.238814 477350.9885
 5948.738115 7689.766725 477365.0085
 3493.211263 8525.774688 477375.0935
 1189.961558 8811.550431 477381.2018
 -1189.961558 8811.550403 477381.2018
 -3493.211263 8525.77471 477375.0935
 -5948.738114 7689.766714 477365.0085
 -7345.238817 7345.238818 477350.9885
 0 0 -0
 0 0 0
 7689.766717 5948.738122 477365.0085
 6254.5554 6254.555382 477382.0612
 3951.71351 6670.8968 477401.0415
 1350.68117 6884.523402 477412.453
 -1350.68117 6884.523449 477412.453
 -3951.71351 6670.89676 477401.0415
 -6254.5554 6254.555409 477382.0612
 -7689.766717 5948.738111 477365.0085
 0 0 -0
 9900.455297 2449.624014 477355.0582
 8525.774703 3493.211248 477375.0935
 6670.896773 3951.713537 477401.0415
 4233.580045 4233.580009 477426.4602
 1449.667865 4371.031237 477441.7911
 -1449.667865 4371.031174 477441.7911
 -4233.580046 4233.580064 477426.4602
 -6670.896773 3951.713497 477401.0415
 -8525.774703 3493.211271 477375.0935
 -9900.455297 2449.624009 477355.0582
 9970.597953 950.107791 477358.9381
 8811.550413 1189.961577 477381.2018
 6884.523433 1350.681138 477412.453
 4371.031195 1449.667908 477441.7911
 1497.323366 1497.323319 477459.3044
 -1497.323366 1497.323391 477459.3044
 -4371.031195 1449.667844 477441.7911
 -6884.523433 1350.681186 477412.453
 -8811.550412 1189.961548 477381.2018
 -9970.597953 950.1078003 477358.9381
 9970.59795 -950.1077908 477358.9381
 8811.550422 -1189.961577 477381.2018
 6884.523418 -1350.681137 477412.453
 4371.031215 -1449.667908 477441.7911
 1497.323343 -1497.323318 477459.3044
 -1497.323343 -1497.323391 477459.3044
 -4371.031215 -1449.667843 477441.7911
 -6884.523417 -1350.681187 477412.453
 -8811.550422 -1189.961548 477381.2018
 -9970.59795 -950.1078002 477358.9381
 9900.455299 -2449.624014 477355.0582
 8525.774695 -3493.211247 477375.0935
 6670.896786 -3951.713538 477401.0415
 4233.580028 -4233.580007 477426.4602
 1449.667886 -4371.031238 477441.7911
 -1449.667886 -4371.031172 477441.7911
 -4233.580027 -4233.580065 477426.4602
 -6670.896786 -3951.713496 477401.0415
 -8525.774695 -3493.211271 477375.0935
 -9900.455299 -2449.624009 477355.0582
 0 0 0
 7689.766721 -5948.738122 477365.0085
 6254.555391 -6254.555381 477382.0612
 3951.713523 -6670.896801 477401.0415
 1350.681155 -6884.5234 477412.453
 -1350.681155 -6884.52345 477412.453
 -3951.713523 -6670.896758 477401.0415
 -6254.555391 -6254.55541 477382.0612
 -7689.766721 -5948.73811 477365.0085
 0 0 -0
 0 0 0
 7345.238816 -7345.238814 477350.9885
 5948.738118 -7689.766725 477365.0085
 3493.211256 -8525.774686 477375.0935
 1189.961567 -8811.550433 477381.2018
 -1189.961567 -8811.550402 477381.2018
 -3493.211256 -8525.774711 477375.0935
 -5948.738118 -7689.766713 477365.0085
 -7345.238816 -7345.238818 477350.9885
 0 0 -0
 0 0 0
 0 0 0
 0 0 0
 2449.624012 -9900.455301 477355.0582
 950.1077942 -9970.597946 477358.9381
 -950.1077942 -9970.597956 477358.9381
 -2449.624012 -9900.455295 477355.0582
 0 0 -0
 0 0 -0
 0 0 -0
 0 0 0
 0 0 0
 0 0 0
 1857.761478 7526.084819 477401.0663
 720.350217 7576.410888 477403.3414
 -720.350217 7576.410885 477403.3414
 -1857.761477 7526.084821 477401.0663
 0 0 -0
 0 0 -0
 0 0 -0
 0 0 0
 5585.852139 5585.852139 477398.6466
 4518.684627 5840.318667 477406.8951
 2649.879479 6472.274858 477412.7764
 902.0685078 6686.7726 477416.3221
 -902.0685078 6686.772609 477416.3221
 -2649.879479 6472.274851 477412.7764
 -4518.684627 5840.318671 477406.8951
 -5585.852139 5585.852138 477398.6466
 0 0 -0
 0 0 0
 5840.318668 4518.684627 477406.8951
 4745.722085 4745.722087 477416.8279
 2995.721127 5058.461739 477427.8049
 1023.463038 5218.977887 477434.3788
 -1023.463039 5218.977871 477434.3788
 -2995.721127 5058.461753 477427.8049
 -4745.722085 4745.722077 477416.8279
 -5840.318668 4518.684631 477406.8951
 0 0 -0
 7526.084819 1857.761477 477401.0663
 6472.274857 2649.879481 477412.7764
 5058.461741 2995.721125 477427.8049
 3208.155882 3208.155884 477442.4434
 1098.246088 3311.865411 477451.2506
 -1098.246088 3311.865432 477451.2506
 -3208.155882 3208.155865 477442.4434
 -5058.461741 2995.721139 477427.8049
 -6472.274857 2649.879473 477412.7764
 -7526.084819 1857.761479 477401.0663
 7576.410888 720.3502177 477403.3414
 6686.772601 902.0685061 477416.3221
 5218.977885 1023.463041 477434.3788
 3311.865413 1098.246085 477451.2506
 1134.309657 1134.30966 477461.3052
 -1134.309657 1134.309634 477461.3052
 -3311.865413 1098.246107 477451.2506
 -5218.977885 1023.463024 477434.3788
 -6686.772601 902.0685164 477416.3221
 -7576.410888 720.3502144 477403.3414
 7576.410885 -720.3502176 477403.3414
 6686.772609 -902.0685059 477416.3221
 5218.977872 -1023.463041 477434.3788
 3311.86543 -1098.246084 477451.2506
 1134.309637 -1134.30966 477461.3052
 -1134.309637 -1134.309634 477461.3052
 -3311.86543 -1098.246107 477451.2506
 -5218.977872 -1023.463024 477434.3788
 -6686.772609 -902.0685164 477416.3221
 -7576.410885 -720.3502142 477403.3414
 7526.084821 -1857.761477 477401.0663
 6472.274851 -2649.879481 477412.7764
 5058.461752 -2995.721124 477427.8049
 3208.155866 -3208.155885 477442.4434
 1098.246105 -3311.865409 477451.2506
 -1098.246105 -3311.865433 477451.2506
 -3208.155866 -3208.155864 477442.4434
 -5058.461752 -2995.72114 477427.8049
 -6472.274851 -2649.879472 477412.7764
 -7526.084821 -1857.761479 477401.0663
 0 0 0
 5840.318671 -4518.684626 477406.8951
 4745.722078 -4745.722087 477416.8279
 2995.721138 -5058.461738 477427.8049
 1023.463025 -5218.977888 477434.3788
 -1023.463025 -5218.97787 477434.3788
 -2995.721139 -5058.461754 477427.8049
 -4745.722078 -4745.722077 477416.8279
 -5840.318671 -4518.684631 477406.8951
 0 0 -0
 0 0 0
 5585.852138 -5585.852139 477398.6466
 4518.684631 -5840.318667 477406.8951
 2649.879473 -6472.274859 477412.7764
 902.0685159 -6686.772599 477416.3221
 -902.0685159 -6686.77261 477416.3221
 -2649.879473 -6472.27485 477412.7764
 -4518.684631 -5840.318671 477406.8951
 -5585.852138 -5585.852137 477398.6466
 0 0 -0
 0 0 0
 0 0 0
 0 0 0
 1857.761479 -7526.084819 477401.0663
 720.3502145 -7576.410888 477403.3414
 -720.3502145 -7576.410884 477403.3414
 -1857.761479 -7526.084821 477401.0663
 0 0 -0
 0 0 -0
 0 0 -0
 0 0 0
 0 0 0
 0 0 0
 1410.891942 5722.948476 477427.616
 546.8977974 5759.022732 477428.9537
 -546.8977973 5759.022729 477428.9537
 -1410.891942 5722.948478 477427.616
 0 0 -0
 0 0 -0
 0 0 -0
 0 0 0
 4249.293624 4249.293627 477426.181
 3433.391086 4437.130017 477431.0369
 2011.08772 4914.283214 477434.4737
 684.1630897 5074.751389 477436.5404
 -684.1630898 5074.751397 477436.5404
 -2011.08772 4914.283207 477434.4737
 -3433.391086 4437.13002 477431.0369
 -4249.293624 4249.293626 477426.181
 0 0 -0
 0 0 0
 4437.130024 3433.391079 477431.0369
 3601.200534 3601.200549 477436.8377
 2270.643083 3834.822713 477443.2004
 775.2570439 3954.450794 477446.9945
 -775.2570437 3954.45078 477446.9945
 -2270.643084 3834.822725 477443.2004
 -3601.200534 3601.200541 477436.8377
 -4437.130024 3433.391083 477431.0369
 0 0 -0
 5722.948479 1410.891939 477427.616
 4914.283201 2011.087733 477434.4737
 3834.822736 2270.643061 477443.2004
 2429.30605 2429.306081 477451.6397
 831.1361594 2506.59764 477456.697
 -831.1361596 2506.597658 477456.697
 -2429.306049 2429.306065 477451.6397
 -3834.822737 2270.643072 477443.2004
 -4914.283201 2011.087726 477434.4737
 -5722.948479 1410.89194 477427.616
 5759.022727 546.8978025 477428.9537
 5074.751405 684.1630738 477436.5404
 3954.450766 775.2570707 477446.9945
 2506.597676 831.136124 477456.697
 858.0319852 858.0320259 477462.4581
 -858.0319849 858.0320058 477462.4581
 -2506.597677 831.1361417 477456.697
 -3954.450766 775.2570572 477446.9945
 -5074.751406 684.1630818 477436.5404
 -5759.022727 546.8977999 477428.9537
 5759.022735 -546.8978023 477428.9537
 5074.75138 -684.1630737 477436.5404
 3954.450807 -775.2570705 477446.9945
 2506.597622 -831.1361241 477456.697
 858.0320469 -858.0320256 477462.4581
 -858.0320471 -858.0320058 477462.4581
 -2506.597621 -831.1361415 477456.697
 -3954.450808 -775.2570572 477446.9945
 -5074.75138 -684.1630817 477436.5404
 -5759.022735 -546.8977998 477428.9537
 5722.948474 -1410.891939 477427.616
 4914.283221 -2011.087732 477434.4737
 3834.822701 -2270.643061 477443.2004
 2429.306097 -2429.30608 477451.6397
 831.1361049 -2506.597641 477456.697
 -831.1361047 -2506.597658 477456.697
 -2429.306098 -2429.306065 477451.6397
 -3834.822701 -2270.643072 477443.2004
 -4914.283221 -2011.087726 477434.4737
 -5722.948474 -1410.89194 477427.616
 0 0 0
 4437.130014 -3433.391079 477431.0369
 3601.200558 -3601.200549 477436.8377
 2270.643048 -3834.822714 477443.2004
 775.2570854 -3954.450793 477446.9945
 -775.2570856 -3954.45078 477446.9945
 -2270.643048 -3834.822725 477443.2004
 -3601.200558 -3601.200542 477436.8377
 -4437.130013 -3433.391082 477431.0369
 0 0 -0
 0 0 0
 4249.293628 -4249.293627 477426.181
 3433.391076 -4437.130017 477431.0369
 2011.08774 -4914.283214 477434.4737
 684.1630646 -5074.751389 477436.5404
 -684.1630645 -5074.751397 477436.5404
 -2011.08774 -4914.283208 477434.4737
 -3433.391076 -4437.13002 477431.0369
 -4249.293628 -4249.293625 477426.181
 0 0 -0
 0 0 0
 0 0 0
 0 0 0
 1410.891937 -5722.948476 477427.616
 546.8978053 -5759.022732 477428.9537
 -546.8978053 -5759.022729 477428.9537
 -1410.891937 -5722.948478 477427.616
 0 0 -0
 0 0 -0
 0 0 -0
 0 0 0
 0 0 0
 0 0 0
 1076.751482 4369.488016 477442.7918
 417.2310388 4395.504573 477443.5849
 -417.2310388 4395.50458 477443.5849
 -1076.751482 4369.488012 477442.7918
 0 0 -0
 0 0 -0
 0 0 -0
 0 0 0
 3245.70328 3245.703276 477441.9359
 2619.501929 3385.056181 477444.8145
 1532.887973 3746.618568 477446.8393
 521.1753648 3867.032007 477448.0555
 -521.1753647 3867.031986 477448.0555
 -1532.887973 3746.618585 477446.8393
 -2619.501929 3385.056173 477444.8145
 -3245.70328 3245.703279 477441.9359
 0 0 -0
 0 0 0
 3385.05617 2619.501941 477444.8145
 2743.90912 2743.909092 477448.2309
 1728.048474 2918.765957 477451.9515
 589.6027873 3007.980278 477454.1609
 -589.6027875 3007.980313 477454.1609
 -1728.048473 2918.765928 477451.9515
 -2743.90912 2743.909112 477448.2309
 -3385.056169 2619.501932 477444.8145
 0 0 -0
 4369.488011 1076.751487 477442.7918
 3746.618591 1532.887949 477446.8393
 2918.765916 1728.048515 477451.9515
 1846.552234 1846.552178 477456.8586
 631.3112508 1904.060661 477459.7861
 -631.3112505 1904.060615 477459.7861
 -1846.552235 1846.552218 477456.8586
 -2918.765915 1728.048486 477451.9515
 -3746.618592 1532.887966 477446.8393
 -4369.48801 1076.751483 477442.7918
 4395.504583 417.2310295 477443.5849
 3867.031977 521.1753943 477448.0555
 3007.980327 589.6027384 477454.1609
 1904.060597 631.3113152 477459.7861
 651.3108857 651.3108128 477463.1115
 -651.310886 651.3108645 477463.1115
 -1904.060596 631.3112695 477459.7861
 -3007.980328 589.6027732 477454.1609
 -3867.031977 521.1753734 477448.0555
 -4395.504583 417.2310361 477443.5849
 4395.504571 -417.2310295 477443.5849
 3867.032015 -521.1753943 477448.0555
 3007.980264 -589.6027383 477454.1609
 1904.060679 -631.3113152 477459.7861
 651.3107914 -651.3108126 477463.1115
 -651.310791 -651.3108646 477463.1115
 -1904.06068 -631.3112693 477459.7861
 -3007.980263 -589.6027732 477454.1609
 -3867.032016 -521.1753733 477448.0555
 -4395.50457 -417.2310361 477443.5849
 4369.488018 -1076.751487 477442.7918
 3746.618561 -1532.887949 477446.8393
 2918.765969 -1728.048515 477451.9515
 1846.552161 -1846.552178 477456.8586
 631.3113342 -1904.060661 477459.7861
 -631.3113345 -1904.060615 477459.7861
 -1846.552161 -1846.552218 477456.8586
 -2918.76597 -1728.048485 477451.9515
 -3746.618561 -1532.887966 477446.8393
 -4369.488018 -1076.751483 477442.7918
 0 0 0
 3385.056185 -2619.501941 477444.8145
 2743.909083 -2743.909091 477448.2309
 1728.048527 -2918.765957 477451.9515
 589.6027238 -3007.980278 477454.1609
 -589.6027235 -3007.980313 477454.1609
 -1728.048528 -2918.765927 477451.9515
 -2743.909083 -2743.909112 477448.2309
 -3385.056185 -2619.501932 477444.8145
 0 0 -0
 0 0 0
 3245.703275 -3245.703276 477441.9359
 2619.501944 -3385.056181 477444.8145
 1532.887942 -3746.618568 477446.8393
 521.1754031 -3867.032007 477448.0555
 -521.1754033 -3867.031986 477448.0555
 -1532.887942 -3746.618585 477446.8393
 -2619.501944 -3385.056173 477444.8145
 -3245.703275 -3245.703279 477441.9359
 0 0 -0
 0 0 0
 0 0 0
 0 0 0
 1076.751489 -4369.488016 477442.7918
 417.2310267 -4395.504573 477443.5849
 -417.2310266 -4395.50458 477443.5849
 -1076.751489 -4369.488012 477442.7918
 0 0 -0
 0 0 -0
 0 0 -0
 0 0 0
 0 0 0
 0 0 0
 828.0397076 3359.540451 477451.4626
 320.7439602 3378.509183 477451.939
 -320.7439602 3378.509175 477451.939
 -828.0397077 3359.540455 477451.4626
 0 0 -0
 0 0 -0
 0 0 -0
 0 0 0
 2496.561433 2496.561438 477450.9458
 2012.763878 2600.875582 477452.6736
 1176.950916 2876.783589 477453.8828
 399.9579935 2967.804282 477454.6088
 -399.9579936 2967.804307 477454.6088
 -1176.950916 2876.783569 477453.8828
 -2012.763878 2600.875592 477452.6736
 -2496.561433 2496.561435 477450.9458
 0 0 -0
 0 0 0
 2600.875596 2012.763864 477452.6736