# OOMMF OVF 2.0
#
# Segment count: 1
#
# Begin: Segment
# Begin: Header
#
# Title: Oxs_MinDriver::Magnetization
# Desc: Oxs vector field output
# Desc:  MIF source file: F:/Bogdan/UNIC/2022/Master_degree/Simulation_samples/Cylinder0_5000 1.mif
# Desc:  Iteration: 1640, State id: 3538
# Desc:  Stage: 5, Stage iteration: 70
# Desc:  Stage simulation time: 0 s
# Desc:  Total simulation time: -2 s
# meshunit: m
# meshtype: rectangular
# xbase: -8.9999999999999995e-09
# ybase: -8.9999999999999995e-09
# zbase: -8.6999999999999998e-08
# xnodes: 10
# ynodes: 10
# znodes: 88
# xstepsize: 2.0000000000000001e-09
# ystepsize: 2.0000000000000001e-09
# zstepsize: 2.0000000000000001e-09
# xmin: -1e-08
# ymin: -1e-08
# zmin: -8.7999999999999994e-08
# xmax: 1e-08
# ymax: 1e-08
# zmax: 8.800000000000002e-08
# valuedim: 3
# valuelabels: Magnetization_x Magnetization_y Magnetization_z
# valueunits: A/m A/m A/m
#
# End: Header
#
# Begin: Data Text
 0 0 0
 0 0 0
 0 0 0
 8098.541535 30449.17056 476423.2708
 3047.088285 30659.33836 476468.8778
 -3047.088285 30659.33836 476468.8778
 -8098.541535 30449.17056 476423.2708
 0 0 -0
 0 0 -0
 0 0 -0
 0 0 0
 22622.14619 22622.14619 476390.9616
 17969.77885 23574.56473 476542.9658
 10640.26616 25572.27997 476659.9569
 3596.091134 26107.31102 476736.1406
 -3596.091134 26107.31101 476736.1406
 -10640.26616 25572.27997 476659.9569
 -17969.77885 23574.56473 476542.9658
 -22622.14619 22622.14619 476390.9616
 0 0 -0
 0 0 0
 23574.56473 17969.77885 476542.9658
 18533.5357 18533.53569 476744.0481
 11483.28842 19307.79332 476935.2309
 3882.373878 19647.05917 477043.8046
 -3882.373878 19647.05917 477043.8046
 -11483.28842 19307.79331 476935.2309
 -18533.5357 18533.5357 476744.0481
 -23574.56473 17969.77885 476542.9658
 0 0 -0
 30449.17056 8098.541537 476423.2708
 25572.27997 10640.26615 476659.9569
 19307.79331 11483.28843 476935.2309
 11938.73359 11938.73358 477165.3849
 4033.972685 12138.83632 477292.622
 -4033.972684 12138.83631 477292.622
 -11938.73359 11938.73359 477165.3849
 -19307.79331 11483.28843 476935.2309
 -25572.27997 10640.26616 476659.9569
 -30449.17056 8098.541536 476423.2708
 30659.33836 3047.088282 476468.8778
 26107.31102 3596.091143 476736.1406
 19647.05917 3882.373866 477043.8046
 12138.83631 4033.972696 477292.622
 4100.54085 4100.540844 477428.7826
 -4100.540851 4100.540856 477428.7826
 -12138.83631 4033.972686 477292.622
 -19647.05917 3882.373873 477043.8046
 -26107.31101 3596.091138 476736.1406
 -30659.33836 3047.088283 476468.8778
 30659.33836 -3047.088282 476468.8778
 26107.31101 -3596.091143 476736.1406
 19647.05917 -3882.373865 477043.8046
 12138.8363 -4033.972696 477292.622
 4100.540856 -4100.540844 477428.7826
 -4100.540856 -4100.540856 477428.7826
 -12138.83631 -4033.972685 477292.622
 -19647.05917 -3882.373873 477043.8046
 -26107.31101 -3596.091138 476736.1406
 -30659.33836 -3047.088283 476468.8778
 30449.17056 -8098.541537 476423.2708
 25572.27998 -10640.26615 476659.9569
 19307.79331 -11483.28843 476935.2309
 11938.73359 -11938.73358 477165.3849
 4033.972679 -12138.83632 477292.622
 -4033.972679 -12138.83631 477292.622
 -11938.73359 -11938.73359 477165.3849
 -19307.79331 -11483.28843 476935.2309
 -25572.27998 -10640.26616 476659.9569
 -30449.17056 -8098.541536 476423.2708
 0 0 0
 23574.56472 -17969.77885 476542.9658
 18533.5357 -18533.53569 476744.0481
 11483.28842 -19307.79332 476935.2309
 3882.373882 -19647.05917 477043.8046
 -3882.373882 -19647.05917 477043.8046
 -11483.28842 -19307.79331 476935.2309
 -18533.5357 -18533.5357 476744.0481
 -23574.56473 -17969.77885 476542.9658
 0 0 -0
 0 0 0
 22622.14619 -22622.14619 476390.9616
 17969.77885 -23574.56473 476542.9658
 10640.26616 -25572.27997 476659.9569
 3596.091131 -26107.31102 476736.1406
 -3596.091131 -26107.31101 476736.1406
 -10640.26616 -25572.27997 476659.9569
 -17969.77885 -23574.56473 476542.9658
 -22622.14619 -22622.14619 476390.9616
 0 0 -0
 0 0 0
 0 0 0
 0 0 0
 8098.541534 -30449.17056 476423.2708
 3047.088286 -30659.33836 476468.8778
 -3047.088286 -30659.33836 476468.8778
 -8098.541534 -30449.17056 476423.2708
 0 0 -0
 0 0 -0
 0 0 -0
 0 0 0
 0 0 0
 0 0 0
 6771.848866 26293.98598 476691.3463
 2606.532815 26489.38738 476721.5011
 -2606.532815 26489.38737 476721.5011
 -6771.848866 26293.98598 476691.3463
 0 0 -0
 0 0 -0
 0 0 -0
 0 0 0
 19499.27402 19499.27403 476666.999
 15702.06494 20399.15483 476769.5365
 9274.652147 22423.40104 476846.9809
 3154.561973 23040.01849 476897.3449
 -3154.561973 23040.01851 476897.3449
 -9274.652146 22423.40103 476846.9809
 -15702.06494 20399.15483 476769.5365
 -19499.27402 19499.27402 476666.999
 0 0 -0
 0 0 0
 20399.15483 15702.06493 476769.5365
 16354.90184 16354.90185 476903.4553
 10222.92076 17208.23011 477044.2747
 3471.709793 17604.60015 477126.7091
 -3471.709792 17604.60013 477126.7091
 -10222.92076 17208.23013 477044.2747
 -16354.90183 16354.90184 476903.4553
 -20399.15483 15702.06493 476769.5365
 0 0 -0
 26293.98598 6771.848861 476691.3463
 22423.40103 9274.652167 476846.9809
 17208.23012 10222.92073 477044.2747
 10740.99226 10740.99228 477222.3103
 3644.523095 10972.61164 477323.9891
 -3644.523096 10972.61167 477323.9891
 -10740.99226 10740.99226 477222.3103
 -17208.23013 10222.92075 477044.2747
 -22423.40103 9274.652156 476846.9809
 -26293.98598 6771.848863 476691.3463
 26489.38738 2606.532824 476721.5011
 23040.0185 3154.561946 476897.3449
 17604.60014 3471.709829 477126.7091
 10972.61165 3644.523062 477323.9891
 3721.191264 3721.191282 477434.9974
 -3721.191263 3721.191246 477434.9974
 -10972.61165 3644.523094 477323.9891
 -17604.60014 3471.709805 477126.7091
 -23040.0185 3154.561961 476897.3449
 -26489.38738 2606.53282 476721.5011
 26489.38737 -2606.532824 476721.5011
 23040.01851 -3154.561946 476897.3449
 17604.60013 -3471.709829 477126.7091
 10972.61167 -3644.523061 477323.9891
 3721.191245 -3721.191283 477434.9974
 -3721.191246 -3721.191245 477434.9974
 -10972.61167 -3644.523094 477323.9891
 -17604.60013 -3471.709804 477126.7091
 -23040.01851 -3154.561961 476897.3449
 -26489.38737 -2606.532819 476721.5011
 26293.98598 -6771.84886 476691.3463
 22423.40102 -9274.652167 476846.9809
 17208.23014 -10222.92073 477044.2747
 10740.99224 -10740.99229 477222.3103
 3644.523112 -10972.61163 477323.9891
 -3644.523111 -10972.61167 477323.9891
 -10740.99224 -10740.99226 477222.3103
 -17208.23013 -10222.92075 477044.2747
 -22423.40103 -9274.652155 476846.9809
 -26293.98598 -6771.848863 476691.3463
 0 0 0
 20399.15484 -15702.06493 476769.5365
 16354.90183 -16354.90185 476903.4553
 10222.92077 -17208.2301 477044.2747
 3471.709779 -17604.60016 477126.7091
 -3471.70978 -17604.60013 477126.7091
 -10222.92077 -17208.23013 477044.2747
 -16354.90183 -16354.90184 476903.4553
 -20399.15484 -15702.06493 476769.5365
 0 0 -0
 0 0 0
 19499.27402 -19499.27403 476666.999
 15702.06494 -20399.15483 476769.5365
 9274.65214 -22423.40104 476846.9809
 3154.561981 -23040.01849 476897.3449
 -3154.561981 -23040.01851 476897.3449
 -9274.65214 -22423.40103 476846.9809
 -15702.06494 -20399.15483 476769.5365
 -19499.27402 -19499.27402 476666.999
 0 0 -0
 0 0 0
 0 0 0
 0 0 0
 6771.848868 -26293.98598 476691.3463
 2606.532812 -26489.38738 476721.5011
 -2606.532812 -26489.38737 476721.5011
 -6771.848867 -26293.98598 476691.3463
 0 0 -0
 0 0 -0
 0 0 -0
 0 0 0
 0 0 0
 0 0 0
 5399.561846 21367.75499 476955.0661
 2091.438148 21533.28422 476973.5997
 -2091.438148 21533.28423 476973.5997
 -5399.561846 21367.75498 476955.0661
 0 0 -0
 0 0 -0
 0 0 -0
 0 0 0
 15840.11513 15840.11512 476938.2065
 12824.88386 16606.05813 477002.7594
 7563.936466 18362.16691 477050.8243
 2578.322867 18939.28655 477081.2582
 -2578.322866 18939.28652 477081.2582
 -7563.936467 18362.16693 477050.8243
 -12824.88386 16606.05812 477002.7594
 -15840.11513 15840.11512 476938.2065
 0 0 -0
 0 0 0
 16606.05812 12824.88387 477002.7594
 13445.1762 13445.17617 477085.2395
 8460.43947 14257.1127 477176.0964
 2883.843333 14653.87258 477230.3624
 -2883.843334 14653.87262 477230.3624
 -8460.439468 14257.11266 477176.0964
 -13445.17621 13445.1762 477085.2395
 -16606.05812 12824.88386 477002.7594
 0 0 -0
 21367.75498 5399.561855 476955.0661
 18362.16693 7563.936434 477050.8243
 14257.11267 8460.439516 477176.0964
 8976.859274 8976.859231 477295.1951
 3059.364901 9216.1905 477365.2411
 -3059.3649 9216.190445 477365.2411
 -8976.859278 8976.85928 477295.1951
 -14257.11266 8460.43948 477176.0964
 -18362.16693 7563.936455 477050.8243
 -21367.75498 5399.56185 476955.0661
 21533.28423 2091.438133 476973.5997
 18939.28654 2578.322909 477081.2582
 14653.8726 2883.843276 477230.3624
 9216.190475 3059.364953 477365.2411
 3139.631993 3139.631963 477443.3545
 -3139.631994 3139.632026 477443.3545
 -9216.190471 3059.364897 477365.2411
 -14653.8726 2883.843319 477230.3624
 -18939.28654 2578.322882 477081.2582
 -21533.28423 2091.438142 476973.5997
 21533.28423 -2091.438133 476973.5997
 18939.28652 -2578.322909 477081.2582
 14653.87262 -2883.843275 477230.3624
 9216.190443 -3059.364954 477365.2411
 3139.632026 -3139.631962 477443.3545
 -3139.632025 -3139.632027 477443.3545
 -9216.190447 -3059.364896 477365.2411
 -14653.87262 -2883.84332 477230.3624
 -18939.28653 -2578.322882 477081.2582
 -21533.28423 -2091.438142 476973.5997
 21367.75498 -5399.561855 476955.0661
 18362.16694 -7563.936434 477050.8243
 14257.11264 -8460.439517 477176.0964
 8976.859303 -8976.859229 477295.1951
 3059.364871 -9216.190502 477365.2411
 -3059.364872 -9216.190442 477365.2411
 -8976.8593 -8976.859281 477295.1951
 -14257.11265 -8460.439478 477176.0964
 -18362.16694 -7563.936455 477050.8243
 -21367.75498 -5399.561849 476955.0661
 0 0 0
 16606.05811 -12824.88387 477002.7594
 13445.17622 -13445.17617 477085.2395
 8460.439449 -14257.1127 477176.0964
 2883.843356 -14653.87258 477230.3624
 -2883.843355 -14653.87262 477230.3624
 -8460.439451 -14257.11266 477176.0964
 -13445.17622 -13445.1762 477085.2395
 -16606.05811 -12824.88386 477002.7594
 0 0 -0
 0 0 0
 15840.11513 -15840.11512 476938.2065
 12824.88385 -16606.05813 477002.7594
 7563.936478 -18362.16691 477050.8243
 2578.322852 -18939.28655 477081.2582
 -2578.322853 -18939.28652 477081.2582
 -7563.936477 -18362.16693 477050.8243
 -12824.88385 -16606.05812 477002.7594
 -15840.11513 -15840.11512 476938.2065
 0 0 -0
 0 0 0
 0 0 0
 0 0 0
 5399.561843 -21367.75499 476955.0661
 2091.438152 -21533.28422 476973.5997
 -2091.438152 -21533.28423 476973.5997
 -5399.561843 -21367.75498 476955.0661
 0 0 -0
 0 0 -0
 0 0 -0
 0 0 0
 0 0 0
 0 0 0
 4201.066833 16804.83307 477149.6829
 1629.428143 16934.50829 477160.8101
 -1629.428143 16934.50827 477160.8101
 -4201.066833 16804.83307 477149.6829
 0 0 -0
 0 0 -0
 0 0 -0
 0 0 0
 12459.33079 12459.33079 477138.7654
 10102.01454 13066.71838 477178.2492
 5949.659901 14480.57289 477207.2777
 2028.714707 14960.32773 477225.2552
 -2028.714707 14960.32776 477225.2552
 -5949.6599 14480.57286 477207.2777
 -10102.01454 13066.71839 477178.2492
 -12459.33079 12459.33079 477138.7654
 0 0 -0
 0 0 0
 13066.71839 10102.01452 477178.2492
 10620.87605 10620.87609 477227.687
 6705.417058 11308.7275 477282.9573
 2290.275311 11654.83452 477316.2377
 -2290.27531 11654.83446 477316.2377
 -6705.41706 11308.72755 477282.9573
 -10620.87605 10620.87605 477227.687
 -13066.71839 10102.01454 477178.2492
 0 0 -0
 16804.83307 4201.066822 477149.6829
 14480.57287 5949.659941 477207.2777
 11308.72753 6705.417 477282.9573
 7157.858787 7157.858843 477356.6815
 2446.618736 7373.496542 477400.7927
 -2446.618737 7373.496622 477400.7927
 -7157.858784 7157.858772 477356.6815
 -11308.72754 6705.417053 477282.9573
 -14480.57286 5949.659911 477207.2777
 -16804.83307 4201.066829 477149.6829
 16934.50828 1629.428161 477160.8101
 14960.32774 2028.714654 477225.2552
 11654.8345 2290.275383 477316.2377
 7373.496575 2446.618669 477400.7927
 2520.072855 2520.072895 477450.6988
 -2520.072853 2520.072802 477450.6988
 -7373.496579 2446.618751 477400.7927
 -11654.8345 2290.27532 477316.2377
 -14960.32774 2028.714693 477225.2552
 -16934.50828 1629.428149 477160.8101
 16934.50827 -1629.428161 477160.8101
 14960.32776 -2028.714654 477225.2552
 11654.83446 -2290.275384 477316.2377
 7373.496621 -2446.618668 477400.7927
 2520.072805 -2520.072896 477450.6988
 -2520.072807 -2520.072801 477450.6988
 -7373.496617 -2446.618752 477400.7927
 -11654.83447 -2290.275319 477316.2377
 -14960.32776 -2028.714693 477225.2552
 -16934.50828 -1629.428148 477160.8101
 16804.83308 -4201.066822 477149.6829
 14480.57285 -5949.659941 477207.2777
 11308.72757 -6705.416998 477282.9573
 7157.858747 -7157.858845 477356.6815
 2446.61878 -7373.496539 477400.7927
 -2446.618779 -7373.496625 477400.7927
 -7157.85875 -7157.858769 477356.6815
 -11308.72756 -6705.417054 477282.9573
 -14480.57285 -5949.65991 477207.2777
 -16804.83308 -4201.06683 477149.6829
 0 0 0
 13066.7184 -10102.01452 477178.2492
 10620.87603 -10620.87609 477227.687
 6705.417089 -11308.72749 477282.9573
 2290.275277 -11654.83453 477316.2377
 -2290.275278 -11654.83446 477316.2377
 -6705.417087 -11308.72755 477282.9573
 -10620.87603 -10620.87605 477227.687
 -13066.7184 -10102.01454 477178.2492
 0 0 -0
 0 0 0
 12459.33079 -12459.33079 477138.7654
 10102.01455 -13066.71838 477178.2492
 5949.659883 -14480.57289 477207.2777
 2028.714728 -14960.32772 477225.2552
 -2028.714727 -14960.32776 477225.2552
 -5949.659884 -14480.57285 477207.2777
 -10102.01455 -13066.71839 477178.2492
 -12459.33079 -12459.33079 477138.7654
 0 0 -0
 0 0 0
 0 0 0
 0 0 0
 4201.066837 -16804.83307 477149.6829
 1629.428136 -16934.50829 477160.8101
 -1629.428136 -16934.50827 477160.8101
 -4201.066837 -16804.83307 477149.6829
 0 0 -0
 0 0 -0
 0 0 -0
 0 0 0
 0 0 0
 0 0 0
 3220.899353 12966.70728 477277.0282
 1249.457158 13063.36852 477283.6249
 -1249.457158 13063.36854 477283.6249
 -3220.899353 12966.70727 477277.0282
 0 0 -0
 0 0 -0
 0 0 -0
 0 0 0
 9616.622406 9616.6224 477270.2719
 7795.315763 10078.98101 477293.954
 4584.290279 11176.20496 477311.1648
 1562.591249 11551.9813 477321.6749
 -1562.591249 11551.98126 477321.6749
 -4584.29028 11176.20499 477311.1648
 -7795.315762 10078.98099 477293.954
 -9616.622406 9616.622406 477270.2719
 0 0 -0
 0 0 0
 10078.98099 7795.315783 477293.954
 8200.704176 8200.704136 477323.1277
 5182.715536 8745.551354 477355.7647
 1771.504942 9023.635094 477375.4362
 -1771.504943 9023.635172 477375.4362
 -5182.715534 8745.551288 477355.7647
 -8200.704178 8200.704181 477323.1277
 -10078.98099 7795.315764 477293.954
 0 0 -0
 12966.70728 3220.899365 477277.0282
 11176.20498 4584.290236 477311.1648
 8745.551312 5182.7156 477355.7647
 5548.111208 5548.111146 477399.5268
 1899.105259 5725.071715 477425.8982
 -1899.105257 5725.071612 477425.8982
 -5548.111211 5548.111236 477399.5268
 -8745.551309 5182.715533 477355.7647
 -11176.20498 4584.290274 477311.1648
 -12966.70728 3220.899356 477277.0282
 13063.36853 1249.457138 477283.6249
 11551.98129 1562.591307 477321.6749
 9023.635121 1771.504863 477375.4362
 5725.071676 1899.105333 477425.8982
 1960.063803 1960.063757 477455.9536
 -1960.063805 1960.063876 477455.9536
 -5725.071673 1899.105228 477425.8982
 -9023.635125 1771.504944 477375.4362
 -11551.98128 1562.591258 477321.6749
 -13063.36853 1249.457153 477283.6249
 13063.36854 -1249.457138 477283.6249
 11551.98126 -1562.591307 477321.6749
 9023.635169 -1771.504862 477375.4362
 5725.071615 -1899.105334 477425.8982
 1960.06387 -1960.063756 477455.9536
 -1960.063868 -1960.063877 477455.9536
 -5725.071619 -1899.105226 477425.8982
 -9023.635165 -1771.504945 477375.4362
 -11551.98126 -1562.591257 477321.6749
 -13063.36854 -1249.457153 477283.6249
 12966.70727 -3220.899365 477277.0282
 11176.205 -4584.290235 477311.1648
 8745.551271 -5182.715602 477355.7647
 5548.111262 -5548.111143 477399.5268
 1899.105199 -5725.071718 477425.8982
 -1899.1052 -5725.071608 477425.8982
 -5548.111259 -5548.111239 477399.5268
 -8745.551274 -5182.71553 477355.7647
 -11176.205 -4584.290275 477311.1648
 -12966.70727 -3220.899355 477277.0282
 0 0 0
 10078.98098 -7795.315784 477293.954
 8200.704204 -8200.704134 477323.1277
 5182.715496 -8745.551357 477355.7647
 1771.504988 -9023.63509 477375.4362
 -1771.504987 -9023.635176 477375.4362
 -5182.715497 -8745.551285 477355.7647
 -8200.704202 -8200.704183 477323.1277
 -10078.98098 -7795.315763 477293.954
 0 0 -0
 0 0 0
 9616.62241 -9616.622399 477270.2719
 7795.315751 -10078.98101 477293.954
 4584.290302 -11176.20495 477311.1648
 1562.591221 -11551.98131 477321.6749
 -1562.591221 -11551.98125 477321.6749
 -4584.290302 -11176.205 477311.1648
 -7795.315752 -10078.98099 477293.954
 -9616.62241 -9616.622406 477270.2719
 0 0 -0
 0 0 0
 0 0 0
 0 0 0
 3220.899348 -12966.70728 477277.0282
 1249.457167 -13063.36852 477283.6249
 -1249.457166 -13063.36854 477283.6249
 -3220.899348 -12966.70727 477277.0282
 0 0 -0
 0 0 -0
 0 0 -0
 0 0 0
 0 0 0
 0 0 0
 2449.624027 9900.45535 477355.0582
 950.1077654 9970.597936 477358.9381
 -950.1077653 9970.597919 477358.9381
 -2449.624028 9900.45536 477355.0582
 0 0 -0
 0 0 -0
 0 0 -0
 0 0 0
 7345.238841 7345.238847 477350.9885
 5948.738187 7689.76673 477365.0085
 3493.2112 8525.774715 477375.0935
 1189.961537 8811.550347 477381.2018
 -1189.961537 8811.5504 477381.2018
 -3493.211199 8525.774673 477375.0935
 -5948.738187 7689.766751 477365.0085
 -7345.238841 7345.23884 477350.9885
 0 0 -0
 0 0 0
 7689.766745 5948.738167 477365.0085
 6254.55541 6254.55545 477382.0612
 3951.713499 6670.896712 477401.0415
 1350.681105 6884.523382 477412.453
 -1350.681105 6884.523294 477412.453
 -3951.713501 6670.896788 477401.0415
 -6254.555409 6254.555398 477382.0612
 -7689.766745 5948.738189 477365.0085
 0 0 -0
 9900.455355 2449.624016 477355.0582
 8525.774694 3493.211243 477375.0935
 6670.896754 3951.713437 477401.0415
 4233.579995 4233.580056 477426.4602
 1449.667808 4371.03107 477441.7911
 -1449.667809 4371.031189 477441.7911
 -4233.579993 4233.579952 477426.4602
 -6670.896756 3951.713514 477401.0415
 -8525.774692 3493.211199 477375.0935
 -9900.455355 2449.624027 477355.0582
 9970.597932 950.1077847 477358.9381
 8811.550362 1189.961481 477381.2018
 6884.523356 1350.681183 477412.453
 4371.031108 1449.667735 477441.7911
 1497.323391 1497.323437 477459.3044
 -1497.32339 1497.323301 477459.3044
 -4371.031111 1449.667856 477441.7911
 -6884.523353 1350.68109 477412.453
 -8811.550364 1189.961537 477381.2018
 -9970.597931 950.107767 477358.9381
 9970.59792 -950.1077847 477358.9381
 8811.550398 -1189.96148 477381.2018
 6884.523297 -1350.681183 477412.453
 4371.031184 -1449.667733 477441.7911
 1497.323308 -1497.323439 477459.3044
 -1497.323309 -1497.3233 477459.3044
 -4371.031182 -1449.667857 477441.7911
 -6884.523299 -1350.681089 477412.453
 -8811.550396 -1189.961537 477381.2018
 -9970.597921 -950.1077668 477358.9381
 9900.455362 -2449.624016 477355.0582
 8525.774665 -3493.211244 477375.0935
 6670.896804 -3951.713435 477401.0415
 4233.579928 -4233.580058 477426.4602
 1449.667882 -4371.031067 477441.7911
 -1449.667882 -4371.031192 477441.7911
 -4233.57993 -4233.579949 477426.4602
 -6670.896802 -3951.713516 477401.0415
 -8525.774666 -3493.211198 477375.0935
 -9900.455361 -2449.624027 477355.0582
 0 0 0
 7689.766759 -5948.738166 477365.0085
 6254.555375 -6254.555452 477382.0612
 3951.713549 -6670.896708 477401.0415
 1350.681048 -6884.523387 477412.453
 -1350.681048 -6884.523289 477412.453
 -3951.713548 -6670.896791 477401.0415
 -6254.555377 -6254.555395 477382.0612
 -7689.766759 -5948.73819 477365.0085
 0 0 -0
 0 0 0
 7345.238836 -7345.238847 477350.9885
 5948.738201 -7689.766729 477365.0085
 3493.211171 -8525.774717 477375.0935
 1189.961572 -8811.550344 477381.2018
 -1189.961572 -8811.550403 477381.2018
 -3493.211172 -8525.77467 477375.0935
 -5948.738201 -7689.766752 477365.0085
 -7345.238836 -7345.238839 477350.9885
 0 0 -0
 0 0 0
 0 0 0
 0 0 0
 2449.624034 -9900.455349 477355.0582
 950.1077541 -9970.597937 477358.9381
 -950.1077542 -9970.597918 477358.9381
 -2449.624034 -9900.455361 477355.0582
 0 0 -0
 0 0 -0
 0 0 -0
 0 0 0
 0 0 0
 0 0 0
 1857.761568 7526.084957 477401.0663
 720.3501943 7576.410918 477403.3414
 -720.3501944 7576.410936 477403.3414
 -1857.761568 7526.084946 477401.0663
 0 0 -0
 0 0 -0
 0 0 -0
 0 0 0
 5585.852222 5585.852216 477398.6466
 4518.684715 5840.318654 477406.8951
 2649.879462 6472.27484 477412.7764
 902.0684684 6686.772521 477416.3221
 -902.0684682 6686.772465 477416.3221
 -2649.879462 6472.274885 477412.7764
 -4518.684714 5840.318632 477406.8951
 -5585.852222 5585.852224 477398.6466
 0 0 -0
 0 0 0
 5840.318641 4518.684732 477406.8951
 4745.722097 4745.722062 477416.8279
 2995.721054 5058.461855 477427.8049
 1023.462934 5218.977728 477434.3788
 -1023.462935 5218.977821 477434.3788
 -2995.721053 5058.461775 477427.8049
 -4745.722098 4745.722117 477416.8279
 -5840.318641 4518.684709 477406.8951
 0 0 -0
 7526.084953 1857.761578 477401.0663
 6472.274859 2649.879425 477412.7764
 5058.461818 2995.721108 477427.8049
 3208.155781 3208.155728 477442.4434
 1098.246029 3311.865404 477451.2506
 -1098.246029 3311.865281 477451.2506
 -3208.155782 3208.155836 477442.4434
 -5058.461817 2995.721028 477427.8049
 -6472.274859 2649.87947 477412.7764
 -7526.084953 1857.761567 477401.0663
 7576.410922 720.3501774 477403.3414
 6686.772508 902.0685175 477416.3221
 5218.977751 1023.462867 477434.3788
 3311.865372 1098.246093 477451.2506
 1134.309742 1134.309702 477461.3052
 -1134.309742 1134.309844 477461.3052
 -3311.86537 1098.245968 477451.2506
 -5218.977753 1023.462963 477434.3788
 -6686.772507 902.0684595 477416.3221
 -7576.410922 720.3501958 477403.3414
 7576.410935 -720.3501772 477403.3414
 6686.772467 -902.0685178 477416.3221
 5218.977819 -1023.462866 477434.3788
 3311.865285 -1098.246094 477451.2506
 1134.309839 -1134.309701 477461.3052
 -1134.309838 -1134.309845 477461.3052
 -3311.865286 -1098.245967 477451.2506
 -5218.977818 -1023.462963 477434.3788
 -6686.772468 -902.0684591 477416.3221
 -7576.410935 -720.3501958 477403.3414
 7526.084945 -1857.761578 477401.0663
 6472.274892 -2649.879424 477412.7764
 5058.461761 -2995.72111 477427.8049
 3208.155857 -3208.155725 477442.4434
 1098.245943 -3311.865407 477451.2506
 -1098.245943 -3311.865278 477451.2506
 -3208.155856 -3208.155838 477442.4434
 -5058.461762 -2995.721026 477427.8049
 -6472.274891 -2649.879471 477412.7764
 -7526.084945 -1857.761566 477401.0663
 0 0 0
 5840.318625 -4518.684733 477406.8951
 4745.722136 -4745.72206 477416.8279
 2995.720996 -5058.461858 477427.8049
 1023.463001 -5218.977725 477434.3788
 -1023.463001 -5218.977825 477434.3788
 -2995.720997 -5058.461772 477427.8049
 -4745.722136 -4745.722118 477416.8279
 -5840.318625 -4518.684709 477406.8951
 0 0 -0
 0 0 0
 5585.852227 -5585.852216 477398.6466
 4518.684698 -5840.318655 477406.8951
 2649.879495 -6472.274838 477412.7764
 902.0684277 -6686.772524 477416.3221
 -902.0684278 -6686.772463 477416.3221
 -2649.879494 -6472.274887 477412.7764
 -4518.684699 -5840.318631 477406.8951
 -5585.852227 -5585.852224 477398.6466
 0 0 -0
 0 0 0
 0 0 0
 0 0 0
 1857.76156 -7526.084958 477401.0663
 720.3502073 -7576.410917 477403.3414
 -720.3502072 -7576.410937 477403.3414
 -1857.76156 -7526.084946 477401.0663
 0 0 -0
 0 0 -0
 0 0 -0
 0 0 0
 0 0 0
 0 0 0
 1410.89196 5722.948504 477427.616
 546.8977769 5759.022689 477428.9537
 -546.8977769 5759.022672 477428.9537
 -1410.89196 5722.948514 477427.616
 0 0 -0
 0 0 -0
 0 0 -0
 0 0 0
 4249.293618 4249.293623 477426.181
 3433.391104 4437.129996 477431.0369
 2011.087722 4914.28321 477434.4737
 684.1631111 5074.751241 477436.5404
 -684.163111 5074.751294 477436.5404
 -2011.087723 4914.283167 477434.4737
 -3433.391103 4437.130018 477431.0369
 -4249.293619 4249.293615 477426.181
 0 0 -0
 0 0 0
 4437.130006 3433.39109 477431.0369
 3601.200479 3601.200506 477436.8377
 2270.642989 3834.822692 477443.2004
 775.257044 3954.450739 477446.9945
 -775.2570441 3954.45065 477446.9945
 -2270.642989 3834.822768 477443.2004
 -3601.200479 3601.200454 477436.8377
 -4437.130006 3433.391112 477431.0369
 0 0 -0
 5722.948507 1410.891952 477427.616
 4914.283195 2011.087751 477434.4737
 3834.82272 2270.642947 477443.2004
 2429.306014 2429.306055 477451.6397
 831.1360163 2506.597507 477456.697
 -831.1360162 2506.597624 477456.697
 -2429.306015 2429.305952 477451.6397
 -3834.82272 2270.643023 477443.2004
 -4914.283195 2011.087708 477434.4737
 -5722.948507 1410.891962 477427.616
 5759.022686 546.89779 477428.9537
 5074.75125 684.1630733 477436.5404
 3954.450721 775.2570959 477446.9945
 2506.597532 831.1359675 477456.697
 858.0320583 858.0320884 477462.4581
 -858.0320584 858.031954 477462.4581
 -2506.597532 831.1360864 477456.697
 -3954.450721 775.2570051 477446.9945
 -5074.75125 684.1631282 477436.5404
 -5759.022686 546.8977726 477428.9537
 5759.022672 -546.89779 477428.9537
 5074.751293 -684.1630729 477436.5404
 3954.450651 -775.2570964 477446.9945
 2506.597622 -831.1359666 477456.697
 858.0319572 -858.0320892 477462.4581
 -858.0319571 -858.031953 477462.4581
 -2506.597622 -831.136087 477456.697
 -3954.450651 -775.2570046 477446.9945
 -5074.751293 -684.1631284 477436.5404
 -5759.022672 -546.8977725 477428.9537
 5722.948515 -1410.891952 477427.616
 4914.283161 -2011.087752 477434.4737
 3834.82278 -2270.642945 477443.2004
 2429.305935 -2429.306057 477451.6397
 831.1361063 -2506.597505 477456.697
 -831.1361064 -2506.597627 477456.697
 -2429.305935 -2429.305951 477451.6397
 -3834.82278 -2270.643024 477443.2004
 -4914.283161 -2011.087707 477434.4737
 -5722.948515 -1410.891962 477427.616
 0 0 0
 4437.130023 -3433.39109 477431.0369
 3601.200438 -3601.200507 477436.8377
 2270.643048 -3834.82269 477443.2004
 775.2569748 -3954.450742 477446.9945
 -775.2569748 -3954.450647 477446.9945
 -2270.643048 -3834.82277 477443.2004
 -3601.200438 -3601.200453 477436.8377
 -4437.130023 -3433.391112 477431.0369
 0 0 -0
 0 0 0
 4249.293613 -4249.293623 477426.181
 3433.39112 -4437.129996 477431.0369
 2011.087689 -4914.283211 477434.4737
 684.1631533 -5074.751238 477436.5404
 -684.1631533 -5074.751296 477436.5404
 -2011.087689 -4914.283165 477434.4737
 -3433.39112 -4437.130018 477431.0369
 -4249.293613 -4249.293615 477426.181
 0 0 -0
 0 0 0
 0 0 0
 0 0 0
 1410.891968 -5722.948503 477427.616
 546.8977635 -5759.022689 477428.9537
 -546.8977635 -5759.022671 477428.9537
 -1410.891968 -5722.948514 477427.616
 0 0 -0
 0 0 -0
 0 0 -0
 0 0 0
 0 0 0
 0 0 0
 1076.751571 4369.488128 477442.7918
 417.2310598 4395.504676 477443.5849
 -417.2310597 4395.504691 477443.5849
 -1076.751571 4369.488118 477442.7918
 0 0 -0
 0 0 -0
 0 0 -0
 0 0 0
 3245.70334 3245.703338 477441.9359
 2619.502024 3385.056222 477444.8145
 1532.88801 3746.618573 477446.8393
 521.1753958 3867.032019 477448.0555
 -521.175396 3867.031971 477448.0555
 -1532.888009 3746.618611 477446.8393
 -2619.502024 3385.056203 477444.8145
 -3245.70334 3245.703344 477441.9359
 0 0 -0
 0 0 0
 3385.056215 2619.502033 477444.8145
 2743.909087 2743.909069 477448.2309
 1728.048519 2918.765992 477451.9515
 589.6026688 3007.980126 477454.1609
 -589.6026684 3007.980204 477454.1609
 -1728.04852 2918.765925 477451.9515
 -2743.909086 2743.909115 477448.2309
 -3385.056216 2619.502014 477444.8145
 0 0 -0
 4369.488125 1076.751576 477442.7918
 3746.618583 1532.887991 477446.8393
 2918.765972 1728.048547 477451.9515
 1846.55198 1846.551952 477456.8586
 631.3113383 1904.060551 477459.7861
 -631.3113389 1904.060448 477459.7861
 -1846.551979 1846.552042 477456.8586
 -2918.765974 1728.04848 477451.9515
 -3746.618582 1532.888029 477446.8393
 -4369.488126 1076.751567 477442.7918
 4395.504678 417.2310513 477443.5849
 3867.032011 521.1754205 477448.0555
 3007.98014 589.6026345 477454.1609
 1904.060532 631.3113719 477459.7861
 651.3107529 651.3107304 477463.1115
 -651.3107522 651.3108482 477463.1115
 -1904.060533 631.3112677 477459.7861
 -3007.980138 589.602714 477454.1609
 -3867.032012 521.1753724 477448.0555
 -4395.504678 417.2310665 477443.5849
 4395.50469 -417.2310512 477443.5849
 3867.031974 -521.1754207 477448.0555
 3007.9802 -589.6026341 477454.1609
 1904.060453 -631.3113724 477459.7861
 651.3108419 -651.3107298 477463.1115
 -651.3108425 -651.3108486 477463.1115
 -1904.060451 -631.3112673 477459.7861
 -3007.980202 -589.6027142 477454.1609
 -3867.031973 -521.1753723 477448.0555
 -4395.50469 -417.2310665 477443.5849
 4369.488118 -1076.751576 477442.7918
 3746.618612 -1532.88799 477446.8393
 2918.765921 -1728.048548 477451.9515
 1846.552049 -1846.55195 477456.8586
 631.3112592 -1904.060552 477459.7861
 -631.3112587 -1904.060446 477459.7861
 -1846.552051 -1846.552043 477456.8586
 -2918.765919 -1728.048479 477451.9515
 -3746.618614 -1532.888029 477446.8393
 -4369.488118 -1076.751567 477442.7918
 0 0 0
 3385.056201 -2619.502033 477444.8145
 2743.909123 -2743.909068 477448.2309
 1728.048467 -2918.765994 477451.9515
 589.6027297 -3007.980124 477454.1609
 -589.60273 -3007.980206 477454.1609
 -1728.048466 -2918.765924 477451.9515
 -2743.909124 -2743.909116 477448.2309
 -3385.0562 -2619.502014 477444.8145
 0 0 -0
 0 0 0
 3245.703346 -3245.703337 477441.9359
 2619.502009 -3385.056223 477444.8145
 1532.888039 -3746.618572 477446.8393
 521.1753587 -3867.03202 477448.0555
 -521.1753586 -3867.03197 477448.0555
 -1532.88804 -3746.618611 477446.8393
 -2619.502009 -3385.056203 477444.8145
 -3245.703346 -3245.703344 477441.9359
 0 0 -0
 0 0 0
 0 0 0
 0 0 0
 1076.751564 -4369.488128 477442.7918
 417.2310715 -4395.504675 477443.5849
 -417.2310716 -4395.504691 477443.5849
 -1076.751564 -4369.488118 477442.7918
 0 0 -0
 0 0 -0
 0 0 -0
 0 0 0
 0 0 0
 0 0 0
 828.0398085 3359.540527 477451.4626
 320.743983 3378.509267 477451.939
 -320.7439831 3378.509254 477451.939
 -828.0398083 3359.540535 477451.4626
 0 0 -0
 0 0 -0
 0 0 -0
 0 0 0
 2496.561454 2496.561456 477450.9458
 2012.763904 2600.875591 477452.6736
 1176.951005 2876.783627 477453.8828
 399.9580705 2967.804205 477454.6088
 -399.9580701 2967.804245 477454.6088
 -1176.951006 2876.783596 477453.8828
 -2012.763903 2600.875607 477452.6736
 -2496.561454 2496.56145 477450.9458
 0 0 -0
 0 0 0