# OOMMF OVF 2.0
#
# Segment count: 1
#
# Begin: Segment
# Begin: Header
#
# Title: Oxs_MinDriver::Magnetization
# Desc: Oxs vector field output
# Desc:  MIF source file: F:/Bogdan/UNIC/2022/Master_degree/Simulation_samples/Cylinder0_5000.mif
# Desc:  Iteration: 1101, State id: 13444
# Desc:  Stage: 2, Stage iteration: 382
# Desc:  Stage simulation time: 0 s
# Desc:  Total simulation time: -2 s
# meshunit: m
# meshtype: rectangular
# xbase: -8.9999999999999995e-09
# ybase: -8.9999999999999995e-09
# zbase: -8.6999999999999998e-08
# xnodes: 10
# ynodes: 10
# znodes: 88
# xstepsize: 2.0000000000000001e-09
# ystepsize: 2.0000000000000001e-09
# zstepsize: 2.0000000000000001e-09
# xmin: -1e-08
# ymin: -1e-08
# zmin: -8.7999999999999994e-08
# xmax: 1e-08
# ymax: 1e-08
# zmax: 8.800000000000002e-08
# valuedim: 3
# valuelabels: Magnetization_x Magnetization_y Magnetization_z
# valueunits: A/m A/m A/m
#
# End: Header
#
# Begin: Data Text
 0 0 0
 0 0 0
 0 0 0
 437814.5524 20942.61061 189345.441
 439657.9475 19971.19151 185132.1474
 441497.2979 18645.33517 180843.4648
 442724.585 17468.681 177937.2313
 0 0 0
 0 0 0
 0 0 0
 0 0 0
 433593.2919 19382.28538 198980.0381
 435577.7389 17430.75534 194782.1179
 437810.6022 17251.38881 189726.4807
 440063.6139 16977.13741 184465.888
 442203.6526 16212.81715 179345.8823
 444166.3305 15054.79509 174532.2186
 446369.394 11788.79507 169077.6737
 447374.9683 8373.507559 166605.5023
 0 0 0
 0 0 0
 433618.5196 14031.78991 199373.9192
 435728.123 13502.48112 194757.6883
 438152.0519 13140.62329 189266.9404
 440568.2425 12852.62427 183592.7696
 442855.1078 12346.71314 178041.5216
 444941.8503 11442.1658 172822.7357
 446765.9667 9768.998104 168156.5015
 447823.4886 8323.95777 165398.6278
 0 0 0
 431802.0671 6543.713536 203656.6374
 433552.7351 7716.699366 199860.8259
 435911.4048 8118.862442 194646.3525
 438461.1121 8118.416575 188832.7721
 440970.7799 7978.959075 182901.5549
 443328.8284 7691.390816 177122.1718
 445463.0038 7181.13402 171706.1877
 447306.0092 6391.783285 166878.2507
 448766.0464 5454.773446 162945.2435
 450002.2443 2988.300176 159564.7878
 431672.9948 2490.553416 204019.8372
 433589.295 2618.06535 199913.3318
 436040.2179 2718.944827 194508.1155
 438640.0559 2738.747797 188571.6624
 441189.0656 2701.321793 182528.854
 443576.761 2609.8287 176648.5697
 445731.1569 2447.862252 171142.0902
 447588.9699 2199.779258 166226.1901
 449069.1304 1830.629394 162189.507
 450031.5054 1135.732636 159506.193
 431672.9948 -2490.553416 204019.8372
 433589.295 -2618.06535 199913.3318
 436040.2179 -2718.944827 194508.1155
 438640.0559 -2738.747797 188571.6624
 441189.0656 -2701.321793 182528.854
 443576.761 -2609.8287 176648.5697
 445731.1569 -2447.862252 171142.0902
 447588.9699 -2199.779257 166226.1901
 449069.1304 -1830.629394 162189.507
 450031.5054 -1135.732636 159506.193
 431802.0671 -6543.713536 203656.6374
 433552.7351 -7716.699366 199860.8259
 435911.4048 -8118.862442 194646.3525
 438461.1121 -8118.416575 188832.7721
 440970.7799 -7978.959075 182901.5549
 443328.8284 -7691.390816 177122.1718
 445463.0038 -7181.13402 171706.1877
 447306.0092 -6391.783285 166878.2507
 448766.0464 -5454.773445 162945.2435
 450002.2443 -2988.300176 159564.7878
 0 0 0
 433618.5196 -14031.78991 199373.9192
 435728.123 -13502.48112 194757.6883
 438152.0519 -13140.62329 189266.9404
 440568.2425 -12852.62427 183592.7696
 442855.1078 -12346.71314 178041.5216
 444941.8503 -11442.1658 172822.7357
 446765.9667 -9768.998104 168156.5015
 447823.4886 -8323.95777 165398.6278
 0 0 0
 0 0 0
 433593.2919 -19382.28538 198980.0381
 435577.7389 -17430.75534 194782.1179
 437810.6022 -17251.38881 189726.4807
 440063.6139 -16977.13741 184465.888
 442203.6526 -16212.81715 179345.8823
 444166.3305 -15054.79509 174532.2186
 446369.394 -11788.79507 169077.6737
 447374.9683 -8373.507559 166605.5023
 0 0 0
 0 0 0
 0 0 0
 0 0 0
 437814.5524 -20942.61061 189345.441
 439657.9475 -19971.19151 185132.1474
 441497.2979 -18645.33517 180843.4648
 442724.585 -17468.681 177937.2313
 0 0 0
 0 0 0
 0 0 0
 0 0 0
 0 0 0
 0 0 0
 436363.2199 19687.08982 192798.9371
 437985.6436 18620.10408 189192.3334
 439609.8692 17195.70562 185524.5048
 440607.6997 15927.59834 183256.7541
 0 0 0
 0 0 0
 0 0 0
 0 0 0
 432587.9275 18780.64253 201213.4283
 434339.2767 16481.8219 197609.7506
 436320.2608 16198.44074 193220.3711
 438350.1402 15970.87048 188589.3877
 440288.7942 15214.4954 184081.9604
 442043.2045 14031.84304 179924.3841
 444076.1161 10606.85006 175087.8898
 444862.1368 6858.202765 173270.0654
 0 0 0
 0 0 0
 432535.6202 13413.03575 201754.5515
 434388.1589 12821.83813 197773.6058
 436607.3912 12438.8439 192850.0256
 438843.6333 12188.16653 187722.0962
 440956.1233 11709.18669 182736.0488
 442854.4003 10792.93655 178144.2224
 444462.5595 9025.927949 174193.6771
 445260.5218 7439.537868 172219.6048
 0 0 0
 431045.2548 6206.492619 205264.0716
 432434.5066 7248.925408 202286.2375
 434528.6219 7688.515768 197731.2185
 436894.4007 7715.619076 192446.4163
 439247.408 7603.852567 187018.0935
 441448.5866 7336.237678 181772.375
 443405.9935 6827.409147 176964.3544
 445034.4353 6013.29654 172858.5055
 446241.9946 5022.657475 169749.0103
 447286.6885 2415.247001 167034.8951
 430850.3068 2387.47172 205752.7263
 432422.3666 2468.790549 202426.9578
 434636.0609 2575.04217 197627.7688
 437065.7441 2607.062092 192194.1983
 439468.3666 2580.019249 186635.392
 441707.4072 2495.782761 181273.8502
 443692.1063 2335.933922 176362.4947
 445342.4822 2082.581923 172155.7659
 446568.9803 1691.353601 168953.119
 447271.8924 940.7771338 167089.319
 430850.3068 -2387.47172 205752.7263
 432422.3666 -2468.790549 202426.9578
 434636.0609 -2575.04217 197627.7688
 437065.7441 -2607.062092 192194.1983
 439468.3666 -2580.019249 186635.392
 441707.4072 -2495.782761 181273.8502
 443692.1063 -2335.933921 176362.4947
 445342.4822 -2082.581923 172155.7659
 446568.9803 -1691.353601 168953.119
 447271.8924 -940.7771337 167089.319
 431045.2548 -6206.492619 205264.0716
 432434.5066 -7248.925408 202286.2375
 434528.6219 -7688.515768 197731.2185
 436894.4007 -7715.619076 192446.4163
 439247.408 -7603.852567 187018.0935
 441448.5866 -7336.237678 181772.375
 443405.9935 -6827.409147 176964.3544
 445034.4353 -6013.29654 172858.5055
 446241.9946 -5022.657474 169749.0103
 447286.6885 -2415.247001 167034.8951
 0 0 0
 432535.6202 -13413.03575 201754.5515
 434388.1589 -12821.83813 197773.6058
 436607.3912 -12438.8439 192850.0256
 438843.6333 -12188.16653 187722.0962
 440956.1233 -11709.18669 182736.0488
 442854.4003 -10792.93655 178144.2224
 444462.5595 -9025.927949 174193.6771
 445260.5218 -7439.537868 172219.6048
 0 0 0
 0 0 0
 432587.9275 -18780.64253 201213.4283
 434339.2767 -16481.8219 197609.7506
 436320.2608 -16198.44074 193220.3711
 438350.1402 -15970.87048 188589.3877
 440288.7942 -15214.4954 184081.9604
 442043.2045 -14031.84304 179924.3841
 444076.1161 -10606.85006 175087.8898
 444862.1368 -6858.202765 173270.0654
 0 0 0
 0 0 0
 0 0 0
 0 0 0
 436363.2199 -19687.08982 192798.9371
 437985.6436 -18620.10408 189192.3334
 439609.8692 -17195.70562 185524.5048
 440607.6997 -15927.59833 183256.7541
 0 0 0
 0 0 0
 0 0 0
 0 0 0
 0 0 0
 0 0 0
 433843.9266 18180.86347 198546.6566
 435219.1122 16983.25063 195621.4836
 436561.3035 15409.67393 192739.8287
 437326.319 14015.26509 191105.0349
 0 0 0
 0 0 0
 0 0 0
 0 0 0
 430757.78 18023.20133 205170.1013
 432220.2711 15477.61977 202281.8623
 433827.0451 14945.40294 198853.2152
 435530.8401 14610.33998 195118.6731
 437167.4948 13765.93535 191486.1661
 438644.579 12491.09666 188166.8864
 440420.6687 8999.015312 184175.2525
 441016.5083 5084.531029 182894.6643
 0 0 0
 0 0 0
 430643.9507 12724.95713 205805.0887
 432185.2382 12008.42392 202592.1739
 434059.2813 11514.19415 198574.5074
 435978.8992 11209.92466 194341.4736
 437796.3948 10687.82579 190241.8419
 439411.1171 9708.244942 186535.4965
 440747.4471 7843.79021 183444.9076
 441327.6456 6132.965324 182110.3161
 0 0 0
 429574.8509 5920.006889 208332.1201
 430575.097 6799.200388 206229.7942
 432281.0939 7167.425597 202616.7692
 434306.4753 7154.48967 198238.6695
 436357.7736 7022.852777 193686.4585
 438274.8733 6737.401707 189318.8161
 439949.9196 6197.221942 185411.7956
 441295.3553 5332.457229 182213.7361
 442252.9236 4290.391883 179905.0178
 443153.0445 1755.518064 177719.3536
 429337.8358 2279.696693 208891.5917
 430534.8589 2313.238968 206412.8278
 432361.4266 2396.835436 202557.9505
 434458.7504 2419.340264 198019.2221
 436568.6554 2387.900763 193323.5069
 438530.3274 2299.134143 188832.5639
 440235.495 2130.334748 184824.3543
 441600.3555 1861.566773 181542.094
 442560.8037 1450.588227 179191.8027
 443089.5127 692.7933954 177885.0052
 429337.8358 -2279.696693 208891.5917
 430534.8589 -2313.238968 206412.8278
 432361.4266 -2396.835436 202557.9505
 434458.7504 -2419.340264 198019.2221
 436568.6554 -2387.900763 193323.5069
 438530.3275 -2299.134143 188832.5639
 440235.495 -2130.334748 184824.3543
 441600.3555 -1861.566773 181542.094
 442560.8037 -1450.588227 179191.8027
 443089.5127 -692.7933953 177885.0052
 429574.8509 -5920.006889 208332.1201
 430575.097 -6799.200388 206229.7942
 432281.0939 -7167.425597 202616.7692
 434306.4753 -7154.48967 198238.6695
 436357.7737 -7022.852777 193686.4585
 438274.8733 -6737.401707 189318.8161
 439949.9196 -6197.221942 185411.7956
 441295.3553 -5332.457229 182213.7361
 442252.9236 -4290.391883 179905.0178
 443153.0445 -1755.518063 177719.3536
 0 0 0
 430643.9507 -12724.95713 205805.0887
 432185.2382 -12008.42392 202592.1739
 434059.2813 -11514.19415 198574.5074
 435978.8992 -11209.92466 194341.4736
 437796.3948 -10687.82579 190241.8419
 439411.1171 -9708.244942 186535.4965
 440747.4471 -7843.79021 183444.9076
 441327.6456 -6132.965323 182110.3161
 0 0 0
 0 0 0
 430757.78 -18023.20133 205170.1013
 432220.2711 -15477.61977 202281.8623
 433827.0451 -14945.40294 198853.2152
 435530.8401 -14610.33998 195118.6731
 437167.4948 -13765.93535 191486.1661
 438644.579 -12491.09666 188166.8864
 440420.6687 -8999.015312 184175.2525
 441016.5083 -5084.531029 182894.6643
 0 0 0
 0 0 0
 0 0 0
 0 0 0
 433843.9266 -18180.86347 198546.6566
 435219.1122 -16983.25063 195621.4836
 436561.3035 -15409.67393 192739.8287
 437326.319 -14015.26509 191105.0349
 0 0 0
 0 0 0
 0 0 0
 0 0 0
 0 0 0
 0 0 0
 430505.2313 16729.11631 205808.7798
 431643.0962 15394.48858 203516.8753
 432693.8324 13662.04591 201398.28
 433223.0681 12143.47772 200355.136
 0 0 0
 0 0 0
 0 0 0
 0 0 0
 428192.1096 17283.09515 210534.2803
 429379.3058 14557.18907 208310.7565
 430574.5148 13745.8875 205884.6985
 431921.4227 13238.12507 203077.591
 433221.1152 12256.78233 200352.4591
 434394.4255 10876.37723 197876.3726
 435884.1052 7369.059288 194737.2977
 436294.9064 3395.294444 193925.4958
 0 0 0
 0 0 0
 428056.2147 12094.6573 211171.6544
 429298.4621 11248.46892 208681.9918
 430780.8916 10597.77391 205638.96
 432320.963 10175.63515 202402.8476
 433784.5544 9558.595464 199277.3568
 435075.8389 8494.757217 196491.0299
 436128.282 6561.425752 194218.7957
 436511.589 4785.515566 193407.8665
 0 0 0
 427417.7683 5693.42929 212728.7181
 428070.564 6418.739331 211391.2566
 429376.7783 6680.838476 208717.0811
 430995.3392 6582.793426 205357.142
 432663.007 6386.99451 201826.1628
 434222.5537 6048.463004 198459.2182
 435565.6952 5458.193746 195511.1367
 436615.4546 4549.453119 193178.9807
 437349.2721 3498.952885 191533.9207
 438128.0211 1131.196215 189774.6791
 427160.2677 2190.738387 213310.0505
 428031.1608 2181.598257 211557.1726
 429442.2767 2229.633958 208677.337
 431128.6586 2225.451201 205170.6568
 432855.4165 2174.025424 201502.6882
 434459.7304 2068.456731 198021.048
 435830.4601 1883.40451 194987.5231
 436893.6281 1599.888395 192596.1303
 437617.0803 1184.444363 190949.6254
 438016.046 452.2915895 190035.8128
 427160.2677 -2190.738387 213310.0505
 428031.1608 -2181.598257 211557.1726
 429442.2767 -2229.633958 208677.337
 431128.6586 -2225.451201 205170.6568
 432855.4165 -2174.025424 201502.6882
 434459.7304 -2068.456731 198021.048
 435830.4601 -1883.40451 194987.5231
 436893.6281 -1599.888394 192596.1303
 437617.0803 -1184.444363 190949.6254
 438016.046 -452.2915894 190035.8128
 427417.7683 -5693.42929 212728.7181
 428070.564 -6418.739331 211391.2566
 429376.7783 -6680.838476 208717.0811
 430995.3392 -6582.793426 205357.142
 432663.007 -6386.99451 201826.1628
 434222.5537 -6048.463003 198459.2182
 435565.6952 -5458.193746 195511.1367
 436615.4546 -4549.453119 193178.9807
 437349.2721 -3498.952885 191533.9207
 438128.0211 -1131.196215 189774.6791
 0 0 0
 428056.2147 -12094.6573 211171.6544
 429298.4621 -11248.46892 208681.9918
 430780.8916 -10597.77391 205638.96
 432320.963 -10175.63515 202402.8476
 433784.5544 -9558.595464 199277.3568
 435075.8389 -8494.757217 196491.0299
 436128.282 -6561.425752 194218.7957
 436511.589 -4785.515566 193407.8665
 0 0 0
 0 0 0
 428192.1096 -17283.09515 210534.2803
 429379.3058 -14557.18907 208310.7565
 430574.5148 -13745.8875 205884.6985
 431921.4227 -13238.12507 203077.591
 433221.1152 -12256.78233 200352.4591
 434394.4255 -10876.37723 197876.3726
 435884.1052 -7369.059288 194737.2977
 436294.9064 -3395.294444 193925.4958
 0 0 0
 0 0 0
 0 0 0
 0 0 0
 430505.2313 -16729.11631 205808.7798
 431643.0962 -15394.48858 203516.8753
 432693.8324 -13662.04591 201398.28
 433223.0681 -12143.47772 200355.136
 0 0 0
 0 0 0
 0 0 0
 0 0 0
 0 0 0
 0 0 0
 426545.5254 15420.18643 213992.9996
 427464.0659 13961.93338 212253.1699
 428234.3062 12085.93926 210810.7692
 428532.6815 10460.96562 210290.7045
 0 0 0
 0 0 0
 0 0 0
 0 0 0
 425009.0499 16604.3259 216941.179
 425948.1505 13741.69494 215293.312
 426735.8353 12671.11521 213793.9219
 427730.1475 11984.92871 211837.5644
 428692.5188 10862.08049 209944.3042
 429561.3104 9386.435262 208232.6746
 430764.6641 5890.97133 205861.5358
 430993.3053 1910.840554 205458.0025
 0 0 0
 0 0 0
 424877.2938 11538.25652 217527.0676
 425849.5443 10578.5988 215666.7109
 426944.5627 9768.762874 213529.3492
 428093.901 9210.101658 211240.7565
 429189.2952 8482.713396 209036.9913
 430150.1321 7337.316732 207096.3518
 430922.9992 5362.731813 205544.3534
 431119.9447 3562.28524 205170.1116
 0 0 0
 424652.8057 5505.906948 218200.7124
 425000.8639 6097.407448 217506.2266
 425935.8701 6255.167401 215664.9686
 427142.371 6060.076844 213271.0522
 428402.0592 5781.954228 210737.0779
 429578.8397 5375.95705 208338.6446
 430577.6052 4733.589448 206282.3074
 431338.3017 3796.173151 204706.448
 431867.9034 2766.159793 203603.3733
 432537.2842 586.3309318 202195.5126
 424385.0632 2117.130697 218780.043
 424980.2301 2071.873944 217622.1097
 426000.5244 2083.694069 215617.9092
 427263.4343 2047.067053 213104.7594
 428575.4096 1968.384522 210454.5439
 429791.3818 1840.348123 207961.1804
 430811.8871 1637.632163 205840.4901
 431580.193 1344.113629 204226.8387
 432090.7303 935.2710563 203146.7385
 432378.4426 240.8304605 202535.6652
 424385.0632 -2117.130697 218780.043
 424980.2301 -2071.873944 217622.1097
 426000.5244 -2083.694069 215617.9092
 427263.4343 -2047.067053 213104.7594
 428575.4096 -1968.384522 210454.5439
 429791.3818 -1840.348123 207961.1804
 430811.8871 -1637.632163 205840.4901
 431580.193 -1344.113629 204226.8387
 432090.7303 -935.2710562 203146.7385
 432378.4426 -240.8304605 202535.6652
 424652.8057 -5505.906947 218200.7124
 425000.8639 -6097.407448 217506.2266
 425935.8702 -6255.167401 215664.9686
 427142.371 -6060.076844 213271.0522
 428402.0592 -5781.954228 210737.0779
 429578.8397 -5375.95705 208338.6446
 430577.6052 -4733.589448 206282.3074
 431338.3017 -3796.173151 204706.448
 431867.9034 -2766.159793 203603.3733
 432537.2842 -586.3309317 202195.5126
 0 0 0
 424877.2938 -11538.25652 217527.0676
 425849.5443 -10578.5988 215666.7109
 426944.5627 -9768.762874 213529.3492
 428093.901 -9210.101658 211240.7565
 429189.2952 -8482.713396 209036.9913
 430150.1321 -7337.316732 207096.3518
 430922.9992 -5362.731813 205544.3534
 431119.9447 -3562.28524 205170.1116
 0 0 0
 0 0 0
 425009.0499 -16604.3259 216941.179
 425948.1505 -13741.69494 215293.312
 426735.8353 -12671.11521 213793.9219
 427730.1475 -11984.92871 211837.5644
 428692.5188 -10862.08049 209944.3042
 429561.3104 -9386.435262 208232.6746
 430764.6641 -5890.97133 205861.5358
 430993.3053 -1910.840554 205458.0025
 0 0 0
 0 0 0
 0 0 0
 0 0 0
 426545.5254 -15420.18643 213992.9996
 427464.0659 -13961.93338 212253.1699
 428234.3062 -12085.93926 210810.7692
 428532.6815 -10460.96562 210290.7045
 0 0 0
 0 0 0
 0 0 0
 0 0 0
 0 0 0
 0 0 0
 422124.4433 14267.67231 222664.0051
 422845.867 12707.60186 221385.9997
 423356.8913 10713.8521 220513.1
 423437.9529 9004.840509 220433.8545
 0 0 0
 0 0 0
 0 0 0
 0 0 0
 421325.715 15988.05675 224055.5629
 422046.2001 13022.56955 222888.5125
 422451.1525 11729.50237 222192.0651
 423115.8643 10884.71992 220966.8742
 423760.1891 9637.409919 219786.9281
 424340.8043 8085.247756 218726.7288
 425275.463 4618.270686 217005.3535
 425330.7797 658.8382895 216945.0738
 0 0 0
 0 0 0
 421211.2068 11045.53038 224568.4457
 421946.5594 9993.196946 223233.3048
 422682.1706 9042.134367 221878.1057
 423459.6713 8355.47711 220417.7037
 424200.944 7525.151845 219017.8131
 424845.4931 6311.549602 217803.4495
 425354.5059 4316.42632 216856.598
 425376.4444 2513.916426 216841.9519
 0 0 0
 421372.6211 5341.675622 224473.7223
 421453.3212 5819.809177 224310.2743
 422057.5731 5886.526586 223169.4986
 422878.4896 5600.893379 221617.4278
 423743.5793 5241.770777 219967.6662
 424546.3724 4769.931022 218425.037
 425212.5757 4082.310422 217139.2905
 425701.3571 3129.321295 216195.3589
 426044.0234 2132.331386 215531.47
 426614.681 130.5209657 214410.2801
 421098.4002 2053.110762 225041.7593
 421460.1217 1978.058975 224364.2672
 422131.4209 1957.826705 223098.8609
 422995.018 1890.088868 221457.7015
 423901.9212 1783.832059 219717.6608
 424735.1344 1633.313407 218103.8036
 425415.7218 1414.911056 216774.8439
 425907.0575 1115.845209 215809.6488
 426224.4904 718.747848 215183.7319
 426411.8139 63.47539733 214813.4824
 421098.4002 -2053.110762 225041.7593
 421460.1217 -1978.058975 224364.2672
 422131.4209 -1957.826705 223098.8609
 422995.018 -1890.088868 221457.7015
 423901.9212 -1783.832059 219717.6608
 424735.1344 -1633.313407 218103.8036
 425415.7218 -1414.911056 216774.8439
 425907.0575 -1115.845209 215809.6488
 426224.4904 -718.7478479 215183.7319
 426411.8139 -63.47539726 214813.4824
 421372.6211 -5341.675622 224473.7223
 421453.3212 -5819.809177 224310.2743
 422057.5731 -5886.526586 223169.4986
 422878.4896 -5600.893379 221617.4278
 423743.5793 -5241.770777 219967.6662
 424546.3724 -4769.931022 218425.037
 425212.5757 -4082.310422 217139.2905
 425701.3571 -3129.321295 216195.3589
 426044.0234 -2132.331386 215531.47
 426614.681 -130.5209657 214410.2801
 0 0 0
 421211.2068 -11045.53038 224568.4457
 421946.5594 -9993.196946 223233.3048
 422682.1706 -9042.134367 221878.1057
 423459.6713 -8355.47711 220417.7037
 424200.944 -7525.151845 219017.8131
 424845.4931 -6311.549602 217803.4495
 425354.5059 -4316.42632 216856.598
 425376.4444 -2513.916426 216841.9519
 0 0 0
 0 0 0
 421325.715 -15988.05675 224055.5629
 422046.2001 -13022.56955 222888.5125
 422451.1525 -11729.50237 222192.0651
 423115.8643 -10884.71992 220966.8742
 423760.1891 -9637.409919 219786.9281
 424340.8043 -8085.247756 218726.7288
 425275.463 -4618.270686 217005.3535
 425330.7797 -658.8382895 216945.0738
 0 0 0
 0 0 0
 0 0 0
 0 0 0
 422124.4433 -14267.67231 222664.0051
 422845.867 -12707.60186 221385.9997
 423356.8913 -10713.8521 220513.1
 423437.9529 -9004.840509 220433.8545
 0 0 0
 0 0 0
 0 0 0
 0 0 0
 0 0 0
 0 0 0
 417374.413 13258.00136 231505.2831
 417923.4808 11619.11613 230601.0226
 418202.684 9535.039349 230190.0724
 418086.2471 7763.763987 230467.9702
 0 0 0
 0 0 0
 0 0 0
 0 0 0
 417251.0932 15424.02425 231593.3851
 417782.2311 12383.44375 230817.09
 417839.886 10907.22835 230787.2036
 418208.009 9931.310292 230163.6409
 418564.852 8583.478642 229568.4209
 418884.4574 6974.815142 229039.3734
 419578.7858 3547.876222 227844.0836
 419475.7128 -375.7871405 228061.0805
 0 0 0
 0 0 0
 417158.634 10602.32116 232030.4638
 417690.2236 9477.204795 231121.0311
 418104.9258 8409.160288 230411.4327
 418545.4007 7613.928799 229638.0781
 418963.2614 6697.495805 228903.4742
 419319.1582 5431.881964 228284.4925
 419588.7965 3431.214543 227827.4345
 419451.0483 1638.908623 228100.8622
 0 0 0
 417671.8205 5191.031243 231290.2394
 417518.521 5573.430252 231557.9686
 417834.6572 5564.260549 230987.2498
 418310.7226 5201.501959 230132.4727
 418815.5159 4771.886917 229221.8664
 419273.8518 4243.517241 228392.8656
 419634.7974 3520.419032 227741.3329
 419876.739 2561.323935 227307.7979
 420051.7425 1600.745333 226993.0452
 420536.2159 -242.8376515 226099.7643
 417391.8682 1994.710944 231844.6048
 417555.6781 1895.275562 231550.2859
 417923.4888 1848.239555 230886.1468
 418428.9408 1753.623264 229969.6015
 418964.2141 1623.009994 228993.9398
 419443.1921 1452.907251 228116.5687
 419810.8155 1222.02458 227440.6674
 420050.7758 920.6741686 226998.6111
 420195.4544 536.9014942 226731.9192
 420293.0145 -81.9011665 226551.6421
 417391.8682 -1994.710944 231844.6048
 417555.6781 -1895.275562 231550.2859
 417923.4888 -1848.239555 230886.1468
 418428.9408 -1753.623264 229969.6015
 418964.214 -1623.009994 228993.9398
 419443.1921 -1452.907251 228116.5687
 419810.8155 -1222.02458 227440.6674
 420050.7758 -920.6741686 226998.6111
 420195.4544 -536.9014941 226731.9192
 420293.0145 81.90116654 226551.6421
 417671.8205 -5191.031243 231290.2394
 417518.521 -5573.430252 231557.9686
 417834.6572 -5564.260549 230987.2498
 418310.7226 -5201.501959 230132.4727
 418815.5159 -4771.886917 229221.8664
 419273.8518 -4243.51724 228392.8656
 419634.7974 -3520.419032 227741.3329
 419876.739 -2561.323935 227307.7979
 420051.7425 -1600.745333 226993.0452
 420536.2159 242.8376515 226099.7643
 0 0 0
 417158.634 -10602.32116 232030.4638
 417690.2236 -9477.204794 231121.0311
 418104.9258 -8409.160288 230411.4327
 418545.4007 -7613.928799 229638.0781
 418963.2614 -6697.495805 228903.4741
 419319.1582 -5431.881964 228284.4926
 419588.7965 -3431.214543 227827.4345
 419451.0483 -1638.908623 228100.8623
 0 0 0
 0 0 0
 417251.0932 -15424.02425 231593.3851
 417782.2311 -12383.44375 230817.09
 417839.886 -10907.22835 230787.2036
 418208.009 -9931.310292 230163.6409
 418564.852 -8583.478642 229568.4209
 418884.4574 -6974.815142 229039.3734
 419578.7858 -3547.876221 227844.0836
 419475.7128 375.7871406 228061.0805
 0 0 0
 0 0 0
 0 0 0
 0 0 0
 417374.413 -13258.00136 231505.2831
 417923.4808 -11619.11613 230601.0226
 418202.684 -9535.039349 230190.0724
 418086.2471 -7763.763987 230467.9702
 0 0 0
 0 0 0
 0 0 0
 0 0 0
 0 0 0
 0 0 0
 412407.5445 12369.22806 240289.1815
 412810.0452 10672.30313 239678.6178
 412888.0019 8522.752497 239630.4068
 412597.5543 6708.204538 240187.6963
 0 0 0
 0 0 0
 0 0 0
 0 0 0
 412885.0391 14900.84236 239323.5898
 413255.0016 11807.77794 238857.1776
 413005.8107 10184.30122 239362.3855
 413115.0782 9104.293215 239217.2972
 413220.8263 7679.642643 239084.5939
 413312.6199 6032.651305 238973.1296
 413800.8014 2654.116466 238188.4206
 413558.4098 -1224.746231 238620.6466
 0 0 0
 0 0 0
 412814.6826 10196.27589 239691.3537
 413174.1427 9015.521119 239118.6306
 413310.1813 7854.255575 238924.4149
 413455.7562 6971.832669 238699.8168
 413589.5563 5987.881457 238494.6446
 413692.1616 4685.603649 238345.7821
 413752.6729 2690.362259 238271.6075
 413474.1271 915.3123223 238768.0458
 0 0 0
 413642.4356 5048.271839 238424.6668
 413285.6677 5349.17195 239036.011
 413355.0795 5277.844437 238917.5463
 413532.0544 4852.357551 238620.1289
 413720.6746 4365.289877 238302.3688
 413875.0822 3791.823432 238043.9239
 413967.0579 3042.970651 237894.6964
 413992.8229 2084.464227 237860.1877
 414022.3339 1159.756861 237815.1242
 414435.2441 -546.440668 237097.029
 413356.2212 1939.557446 238965.9889
 413352.7897 1820.108893 238972.8641
 413461.4548 1751.169398 238785.3222
 413656.0894 1634.503902 238448.8193
 413864.5425 1483.862273 238087.8197
 414030.1439 1297.98924 237800.8125
 414121.4381 1057.916236 237642.9813
 414141.0885 756.5656114 237609.8855
 414135.7013 386.0766602 237620.1657
 414155.7831 -200.0988118 237585.3921
 413356.2212 -1939.557446 238965.9889
 413352.7897 -1820.108893 238972.8641
 413461.4548 -1751.169398 238785.3221
 413656.0894 -1634.503902 238448.8193
 413864.5425 -1483.862273 238087.8197
 414030.1439 -1297.98924 237800.8125
 414121.4382 -1057.916236 237642.9813
 414141.0885 -756.5656114 237609.8855
 414135.7013 -386.0766601 237620.1657
 414155.7831 200.0988118 237585.3921
 413642.4356 -5048.271839 238424.6668
 413285.6677 -5349.17195 239036.011
 413355.0795 -5277.844437 238917.5463
 413532.0544 -4852.357551 238620.1288
 413720.6746 -4365.289877 238302.3688
 413875.0822 -3791.823432 238043.9239
 413967.0579 -3042.970651 237894.6965
 413992.8229 -2084.464227 237860.1877
 414022.3339 -1159.756861 237815.1242
 414435.2441 546.440668 237097.029
 0 0 0
 412814.6826 -10196.27589 239691.3537
 413174.1427 -9015.521119 239118.6306
 413310.1813 -7854.255575 238924.4149
 413455.7562 -6971.832669 238699.8168
 413589.5563 -5987.881457 238494.6446
 413692.1616 -4685.603649 238345.7821
 413752.6729 -2690.362259 238271.6075
 413474.1271 -915.3123223 238768.0458
 0 0 0
 0 0 0
 412885.0391 -14900.84236 239323.5898
 413255.0016 -11807.77794 238857.1776
 413005.8108 -10184.30122 239362.3855
 413115.0782 -9104.293215 239217.2972
 413220.8263 -7679.642643 239084.5939
 413312.6199 -6032.651305 238973.1296
 413800.8014 -2654.116466 238188.4206
 413558.4098 1224.746231 238620.6466
 0 0 0
 0 0 0
 0 0 0
 0 0 0
 412407.5445 -12369.22806 240289.1815
 412810.0452 -10672.30313 239678.6178
 412888.0019 -8522.752497 239630.4068
 412597.5543 -6708.204538 240187.6963
 0 0 0
 0 0 0
 0 0 0
 0 0 0
 0 0 0
 0 0 0
 407319.4277 11579.09559 248854.736
 407600.8541 9841.50929 248468.428
 407509.0219 7647.288583 248696.1748
 407069.5467 5805.05465 249464.5401
 0 0 0
 0 0 0
 0 0 0
 0 0 0
 408318.1814 14409.08551 247063.7819
 408553.5072 11281.55906 246837.2529
 408039.4544 9541.238337 247759.2374
 407928.8788 8380.718118 247983.1943
 407821.9584 6899.915834 248204.5783
 407721.5467 5229.823768 248410.2667
 408039.8691 1905.673488 247934.8804
 407679.2334 -1922.829713 248527.2956
 0 0 0
 0 0 0
 408267.424 9817.975927 247372.5715
 408484.1798 8595.595811 247060.0371
 408383.9221 7361.763232 247265.5414
 408278.8712 6411.620625 247465.4031
 408171.2849 5377.091317 247667.4391
 408059.3459 4051.26788 247877.0436
 407943.7714 2069.536346 248091.6518
 407545.3755 316.0453131 248753.9714
 0 0 0
 409371.5417 4910.161868 245688.2221
 408839.5408 5140.717931 246567.7883
 408701.0287 5018.655518 246799.8249
 408624.9214 4543.377408 246935.017
 408544.6193 4011.241959 247077.0635
 408440.0852 3403.517732 247258.9415
 408303.5028 2637.393081 247493.7677
 408146.7307 1684.286851 247760.5309
 408054.8579 793.5891753 247916.265
 408411.9715 -793.8523115 247327.521
 409078.0848 1886.305271 246218.2644
 408934.3948 1750.263966 246457.8435
 408825.3214 1663.548863 246639.3328
 408757.008 1529.264532 246753.4012
 408687.242 1362.814764 246869.9095
 408585.4544 1164.874148 247039.3507
 408441.5767 918.5186169 247278.1957
 408275.0022 618.7846012 247554.0567
 408144.1002 260.9577609 247770.4516
 408100.3724 -296.3668135 247842.4289
 409078.0848 -1886.305271 246218.2644
 408934.3948 -1750.263966 246457.8434
 408825.3214 -1663.548863 246639.3328
 408757.008 -1529.264532 246753.4012
 408687.242 -1362.814764 246869.9096
 408585.4544 -1164.874148 247039.3507
 408441.5767 -918.5186169 247278.1957
 408275.0022 -618.7846012 247554.0567
 408144.1002 -260.9577609 247770.4516
 408100.3724 296.3668135 247842.4289
 409371.5417 -4910.161868 245688.2221
 408839.5408 -5140.717931 246567.7883
 408701.0287 -5018.655518 246799.8249
 408624.9214 -4543.377408 246935.017
 408544.6193 -4011.241959 247077.0635
 408440.0852 -3403.517732 247258.9415
 408303.5028 -2637.393081 247493.7677
 408146.7307 -1684.286851 247760.5309
 408054.8579 -793.5891753 247916.265
 408411.9715 793.8523115 247327.521
 0 0 0
 408267.424 -9817.975927 247372.5715
 408484.1798 -8595.595811 247060.0371
 408383.9221 -7361.763232 247265.5414
 408278.8712 -6411.620625 247465.4031
 408171.2849 -5377.091317 247667.439
 408059.3459 -4051.26788 247877.0436
 407943.7714 -2069.536346 248091.6518
 407545.3755 -316.0453131 248753.9714
 0 0 0
 0 0 0
 408318.1814 -14409.08551 247063.7819
 408553.5072 -11281.55906 246837.2529
 408039.4544 -9541.238337 247759.2374
 407928.8788 -8380.718118 247983.1943
 407821.9584 -6899.915834 248204.5783
 407721.5467 -5229.823768 248410.2667
 408039.8691 -1905.673488 247934.8804
 407679.2334 1922.829713 248527.2956
 0 0 0
 0 0 0
 0 0 0
 0 0 0
 407319.4277 -11579.09559 248854.736
 407600.8541 -9841.50929 248468.428
 407509.0219 -7647.288583 248696.1748
 407069.5467 -5805.05465 249464.5401
 0 0 0
 0 0 0
 0 0 0
 0 0 0
 0 0 0
 0 0 0
 402191.3583 10868.31879 257091.1556
 402375.8987 9103.986027 256870.8331
 402144.9106 6881.737657 257301.3483
 401581.2447 5024.125483 258223.0302
 0 0 0
 0 0 0
 0 0 0
 0 0 0
 403631.8255 13941.91183 254673.9953
 403757.0372 10793.98568 254628.3882
 403019.3656 8961.595973 255865.1052
 402726.9818 7739.95778 256364.8621
 402445.2721 6219.930555 256848.1784
 402188.0603 4538.911884 257285.8987
 402372.2374 1273.199799 257034.6919
 401914.6954 -2501.653825 257740.5491
 0 0 0
 0 0 0
 403596.9188 9460.790985 254935.0739
 403697.8282 8207.884841 254818.6913
 403401.7325 6918.433695 255325.3783
 403089.3845 5916.893262 255843.3305
 402782.9538 4845.972919 256347.9666
 402495.463 3507.207723 256820.8969
 402237.1372 1544.902837 257244.5725
 401740.318 -184.3345577 258024.3288
 0 0 0
 404939.716 4775.006546 252928.6402
 404258.5755 4943.86155 254012.6644
 403947.7702 4780.210732 254509.7637
 403662.3573 4265.9029 254971.3212
 403359.6369 3699.277534 255458.7834
 403041.4329 3066.539267 255968.8868