# OOMMF OVF 2.0
#
# Segment count: 1
#
# Begin: Segment
# Begin: Header
#
# Title: Oxs_MinDriver::Magnetization
# Desc: Oxs vector field output
# Desc:  MIF source file: F:/Bogdan/UNIC/2022/Master_degree/Simulation_samples/Cylinder0_5000.mif
# Desc:  Iteration: 748, State id: 17108
# Desc:  Stage: 2, Stage iteration: 362
# Desc:  Stage simulation time: 0 s
# Desc:  Total simulation time: -2 s
# meshunit: m
# meshtype: rectangular
# xbase: -8.9999999999999995e-09
# ybase: -8.9999999999999995e-09
# zbase: -8.6999999999999998e-08
# xnodes: 10
# ynodes: 10
# znodes: 88
# xstepsize: 2.0000000000000001e-09
# ystepsize: 2.0000000000000001e-09
# zstepsize: 2.0000000000000001e-09
# xmin: -1e-08
# ymin: -1e-08
# zmin: -8.7999999999999994e-08
# xmax: 1e-08
# ymax: 1e-08
# zmax: 8.800000000000002e-08
# valuedim: 3
# valuelabels: Magnetization_x Magnetization_y Magnetization_z
# valueunits: A/m A/m A/m
#
# End: Header
#
# Begin: Data Text
 0 0 0
 0 0 0
 0 0 0
 437814.5471 20942.6238 189345.4519
 439657.9422 19971.2036 185132.1588
 441497.2925 18645.34652 180843.4767
 442724.5796 17468.69145 177937.2437
 0 0 0
 0 0 0
 0 0 0
 0 0 0
 433593.2875 19382.29708 198980.0465
 435577.7353 17430.76717 194782.1249
 437810.5979 17251.40066 189726.4895
 440063.6096 16977.14823 184465.8972
 442203.6479 16212.82702 179345.8928
 444166.326 15054.80336 174532.2293
 446369.3896 11788.80123 169077.6849
 447374.9638 8373.512903 166605.514
 0 0 0
 0 0 0
 433618.5161 14031.80016 199373.926
 435728.1197 13502.49089 194757.695
 438152.0484 13140.63274 189266.9478
 440568.2383 12852.633 183592.779
 442855.1038 12346.72084 178041.5313
 444941.8464 11442.17209 172822.7454
 446765.9628 9769.002962 168156.5114
 447823.4848 8323.961544 165398.6379
 0 0 0
 431802.0642 6543.717752 203656.6434
 433552.7323 7716.705534 199860.8317
 435911.4019 8118.868753 194646.3588
 438461.1088 8118.422595 188832.7795
 440970.7762 7978.964924 182901.5636
 443328.8246 7691.395638 177122.181
 445463.0001 7181.137834 171706.1969
 447306.0055 6391.786236 166878.2604
 448766.0429 5454.775547 162945.253
 450002.2408 2988.301785 159564.7977
 431672.9924 2490.554756 204019.8424
 433589.2926 2618.067233 199913.3372
 436040.2151 2718.946527 194508.1218
 438640.0531 2738.749932 188571.669
 441189.0625 2701.323728 182528.8614
 443576.758 2609.830308 176648.5774
 445731.1539 2447.863604 171142.0979
 447588.9666 2199.780515 166226.1989
 449069.1272 1830.63039 162189.5161
 450031.5021 1135.733556 159506.2021
 431672.9924 -2490.554756 204019.8424
 433589.2926 -2618.067233 199913.3372
 436040.2151 -2718.946527 194508.1218
 438640.0531 -2738.749932 188571.669
 441189.0625 -2701.323728 182528.8614
 443576.758 -2609.830308 176648.5774
 445731.1539 -2447.863604 171142.0979
 447588.9666 -2199.780515 166226.1989
 449069.1272 -1830.63039 162189.5161
 450031.5021 -1135.733556 159506.2021
 431802.0642 -6543.717752 203656.6434
 433552.7323 -7716.705534 199860.8317
 435911.4019 -8118.868753 194646.3588
 438461.1088 -8118.422595 188832.7795
 440970.7762 -7978.964924 182901.5636
 443328.8246 -7691.395638 177122.181
 445463.0001 -7181.137834 171706.1969
 447306.0055 -6391.786236 166878.2604
 448766.0429 -5454.775547 162945.253
 450002.2408 -2988.301785 159564.7977
 0 0 0
 433618.5161 -14031.80016 199373.926
 435728.1197 -13502.49089 194757.695
 438152.0484 -13140.63274 189266.9478
 440568.2383 -12852.633 183592.779
 442855.1038 -12346.72084 178041.5313
 444941.8464 -11442.17209 172822.7454
 446765.9628 -9769.002962 168156.5114
 447823.4848 -8323.961544 165398.6379
 0 0 0
 0 0 0
 433593.2875 -19382.29708 198980.0465
 435577.7353 -17430.76717 194782.1249
 437810.5979 -17251.40066 189726.4895
 440063.6096 -16977.14823 184465.8972
 442203.6479 -16212.82702 179345.8928
 444166.326 -15054.80336 174532.2293
 446369.3896 -11788.80123 169077.6849
 447374.9638 -8373.512903 166605.514
 0 0 0
 0 0 0
 0 0 0
 0 0 0
 437814.5471 -20942.6238 189345.4519
 439657.9422 -19971.2036 185132.1588
 441497.2925 -18645.34652 180843.4767
 442724.5796 -17468.69145 177937.2437
 0 0 0
 0 0 0
 0 0 0
 0 0 0
 0 0 0
 0 0 0
 436363.2146 19687.10057 192798.9479
 437985.6385 18620.11343 189192.3444
 439609.8639 17195.71438 185524.5166
 440607.6944 15927.60592 183256.7661
 0 0 0
 0 0 0
 0 0 0
 0 0 0
 432587.9229 18780.65267 201213.4373
 434339.2728 16481.83192 197609.7584
 436320.2566 16198.45014 193220.3799
 438350.1357 15970.87922 188589.3976
 440288.7898 15214.50264 184081.9702
 442043.2001 14031.84932 179924.3946
 444076.112 10606.85399 175087.9
 444862.1326 6858.205896 173270.0762
 0 0 0
 0 0 0
 432535.6164 13413.04463 201754.5591
 434388.1553 12821.84615 197773.6132
 436607.3873 12438.85179 192850.034
 438843.6293 12188.17325 187722.1051
 440956.119 11709.19278 182736.059
 442854.3966 10792.94077 178144.2313
 444462.5558 9025.931434 174193.6864
 445260.5182 7439.539876 172219.6142
 0 0 0
 431045.2513 6206.496404 205264.0787
 432434.5032 7248.930525 202286.2446
 434528.6184 7688.521203 197731.226
 436894.3972 7715.624081 192446.424
 439247.4038 7603.85726 187018.1032
 441448.5829 7336.241263 181772.3837
 443405.9898 6827.411922 176964.3636
 445034.4319 6013.298113 172858.5143
 446241.9913 5022.658978 169749.0187
 447286.6852 2415.24779 167034.9039
 430850.3038 2387.472776 205752.7325
 432422.3635 2468.792306 202426.9644
 434636.0576 2575.043447 197627.7761
 437065.7408 2607.06378 192194.2057
 439468.3633 2580.021068 186635.3997
 441707.4039 2495.78378 181273.8583
 443692.1033 2335.934748 176362.5021
 445342.4791 2082.583143 172155.7739
 446568.9773 1691.35392 168953.127
 447271.8893 940.7779155 167089.3271
 430850.3038 -2387.472776 205752.7325
 432422.3635 -2468.792306 202426.9644
 434636.0576 -2575.043447 197627.7761
 437065.7408 -2607.06378 192194.2057
 439468.3633 -2580.021068 186635.3997
 441707.4039 -2495.78378 181273.8583
 443692.1033 -2335.934748 176362.5021
 445342.4791 -2082.583143 172155.7739
 446568.9773 -1691.35392 168953.127
 447271.8893 -940.7779155 167089.3271
 431045.2513 -6206.496404 205264.0787
 432434.5032 -7248.930525 202286.2446
 434528.6184 -7688.521203 197731.226
 436894.3972 -7715.624081 192446.424
 439247.4038 -7603.85726 187018.1032
 441448.5829 -7336.241263 181772.3837
 443405.9898 -6827.411922 176964.3636
 445034.4319 -6013.298113 172858.5143
 446241.9913 -5022.658978 169749.0187
 447286.6852 -2415.24779 167034.9039
 0 0 0
 432535.6164 -13413.04463 201754.5591
 434388.1553 -12821.84615 197773.6132
 436607.3873 -12438.85179 192850.034
 438843.6293 -12188.17325 187722.1051
 440956.119 -11709.19278 182736.059
 442854.3966 -10792.94077 178144.2313
 444462.5558 -9025.931434 174193.6864
 445260.5182 -7439.539876 172219.6142
 0 0 0
 0 0 0
 432587.9229 -18780.65267 201213.4373
 434339.2728 -16481.83192 197609.7584
 436320.2566 -16198.45014 193220.3799
 438350.1357 -15970.87922 188589.3976
 440288.7898 -15214.50264 184081.9702
 442043.2001 -14031.84932 179924.3946
 444076.112 -10606.85399 175087.9
 444862.1326 -6858.205896 173270.0762
 0 0 0
 0 0 0
 0 0 0
 0 0 0
 436363.2146 -19687.10057 192798.9479
 437985.6385 -18620.11343 189192.3444
 439609.8639 -17195.71438 185524.5166
 440607.6944 -15927.60592 183256.7661
 0 0 0
 0 0 0
 0 0 0
 0 0 0
 0 0 0
 0 0 0
 433843.9221 18180.87003 198546.6659
 435219.1076 16983.25604 195621.4934
 436561.2989 15409.67827 192739.8387
 437326.3143 14015.26853 191105.0453
 0 0 0
 0 0 0
 0 0 0
 0 0 0
 430757.776 18023.20868 205170.109
 432220.2677 15477.62653 202281.869
 433827.0413 14945.40914 198853.2229
 435530.8363 14610.34457 195118.6813
 437167.4907 13765.93941 191486.1751
 438644.575 12491.09897 188166.8955
 440420.665 8999.016292 184175.2611
 441016.5046 5084.530965 182894.6734
 0 0 0
 0 0 0
 430643.9473 12724.96348 205805.0952
 432185.2351 12008.4297 202592.1801
 434059.2779 11514.19902 198574.5145
 435978.8953 11209.9289 194341.482
 437796.3909 10687.82854 190241.8506
 439411.1137 9708.24678 186535.5045
 440747.4436 7843.79063 183444.9159
 441327.6424 6132.965086 182110.324
 0 0 0
 429574.8478 5920.009706 208332.1265
 430575.0941 6799.204353 206229.8002
 432281.0907 7167.42923 202616.7759
 434306.4721 7154.493065 198238.6765
 436357.7699 7022.855641 193686.467
 438274.8696 6737.403527 189318.8247
 439949.9161 6197.22256 185411.804
 441295.3521 5332.457629 182213.7438
 442252.9205 4290.391497 179905.0254
 443153.0416 1755.517969 177719.3607
 429337.8332 2279.697559 208891.5969
 430534.8561 2313.239884 206412.8337
 432361.4236 2396.836405 202557.9568
 434458.7473 2419.341456 198019.2287
 436568.6521 2387.901669 193323.5144
 438530.3242 2299.134703 188832.5715
 440235.4921 2130.335139 184824.3612
 441600.3524 1861.566842 181542.1014
 442560.8009 1450.588657 179191.8094
 443089.5099 692.7935173 177885.0121
 429337.8332 -2279.697559 208891.5969
 430534.8561 -2313.239884 206412.8337
 432361.4236 -2396.836405 202557.9568
 434458.7473 -2419.341456 198019.2287
 436568.6521 -2387.901669 193323.5144
 438530.3242 -2299.134703 188832.5715
 440235.4921 -2130.335139 184824.3612
 441600.3524 -1861.566842 181542.1014
 442560.8009 -1450.588657 179191.8094
 443089.5099 -692.7935173 177885.0121
 429574.8478 -5920.009706 208332.1265
 430575.0941 -6799.204353 206229.8002
 432281.0907 -7167.42923 202616.7759
 434306.4721 -7154.493065 198238.6765
 436357.7699 -7022.855641 193686.467
 438274.8696 -6737.403527 189318.8247
 439949.9161 -6197.22256 185411.804
 441295.3521 -5332.457629 182213.7438
 442252.9205 -4290.391497 179905.0254
 443153.0416 -1755.517969 177719.3607
 0 0 0
 430643.9473 -12724.96348 205805.0952
 432185.2351 -12008.4297 202592.1801
 434059.2779 -11514.19902 198574.5145
 435978.8953 -11209.9289 194341.482
 437796.3909 -10687.82854 190241.8506
 439411.1137 -9708.24678 186535.5045
 440747.4436 -7843.79063 183444.9159
 441327.6424 -6132.965086 182110.324
 0 0 0
 0 0 0
 430757.776 -18023.20868 205170.109
 432220.2677 -15477.62653 202281.869
 433827.0413 -14945.40914 198853.2229
 435530.8363 -14610.34457 195118.6813
 437167.4907 -13765.93941 191486.1751
 438644.575 -12491.09897 188166.8955
 440420.665 -8999.016292 184175.2611
 441016.5046 -5084.530965 182894.6734
 0 0 0
 0 0 0
 0 0 0
 0 0 0
 433843.9221 -18180.87003 198546.6659
 435219.1076 -16983.25604 195621.4934
 436561.2989 -15409.67827 192739.8387
 437326.3143 -14015.26853 191105.0453
 0 0 0
 0 0 0
 0 0 0
 0 0 0
 0 0 0
 0 0 0
 430505.228 16729.11865 205808.7865
 431643.0927 15394.4895 203516.8826
 432693.8286 13662.0462 201398.2881
 433223.0641 12143.47686 200355.1446
 0 0 0
 0 0 0
 0 0 0
 0 0 0
 428192.1075 17283.0993 210534.2844
 429379.3041 14557.19258 208310.7599
 430574.5122 13745.88972 205884.7038
 431921.4198 13238.12623 203077.597
 433221.1118 12256.78225 200352.4666
 434394.422 10876.37629 197876.3803
 435884.1014 7369.057084 194737.3061
 436294.9025 3395.29154 193925.5047
 0 0 0
 0 0 0
 428056.2133 12094.6611 211171.6571
 429298.4603 11248.47163 208681.9954
 430780.8895 10597.77604 205638.9644
 432320.9599 10175.63615 202402.8542
 433784.551 9558.595576 199277.3642
 435075.8354 8494.756027 196491.0377
 436128.2786 6561.42408 194218.8034
 436511.5853 4785.51284 193407.8749
 0 0 0
 427417.767 5693.431163 212728.7207
 428070.5625 6418.741532 211391.2594
 429376.7766 6680.840491 208717.0846
 430995.3368 6582.794996 205357.1468
 432663.0037 6386.99554 201826.1698
 434222.5501 6048.462825 198459.226
 435565.6917 5458.192711 195511.1445
 436615.4509 4549.45163 193178.9891
 437349.2688 3498.951456 191533.9284
 438128.0177 1131.195097 189774.6869
 427160.267 2190.738666 213310.0519
 428031.1598 2181.598932 211557.1748
 429442.2749 2229.634175 208677.3409
 431128.6564 2225.451755 205170.6614
 432855.4135 2174.026004 201502.6945
 434459.7272 2068.456406 198021.055
 435830.4569 1883.404099 194987.5301
 436893.6248 1599.888286 192596.1376
 437617.0769 1184.44387 190949.6332
 438016.0427 452.2915656 190035.8205
 427160.267 -2190.738666 213310.0519
 428031.1598 -2181.598932 211557.1748
 429442.2749 -2229.634175 208677.3409
 431128.6564 -2225.451755 205170.6614
 432855.4135 -2174.026004 201502.6945
 434459.7272 -2068.456406 198021.055
 435830.4569 -1883.404099 194987.5301
 436893.6248 -1599.888286 192596.1376
 437617.0769 -1184.44387 190949.6332
 438016.0427 -452.2915656 190035.8205
 427417.767 -5693.431163 212728.7207
 428070.5625 -6418.741532 211391.2594
 429376.7766 -6680.840491 208717.0846
 430995.3368 -6582.794996 205357.1468
 432663.0037 -6386.99554 201826.1698
 434222.5501 -6048.462825 198459.226
 435565.6917 -5458.192711 195511.1445
 436615.4509 -4549.45163 193178.9891
 437349.2688 -3498.951456 191533.9284
 438128.0177 -1131.195097 189774.6869
 0 0 0
 428056.2133 -12094.6611 211171.6571
 429298.4603 -11248.47163 208681.9954
 430780.8895 -10597.77604 205638.9644
 432320.9599 -10175.63615 202402.8542
 433784.551 -9558.595576 199277.3642
 435075.8354 -8494.756027 196491.0377
 436128.2786 -6561.42408 194218.8034
 436511.5853 -4785.51284 193407.8749
 0 0 0
 0 0 0
 428192.1075 -17283.0993 210534.2844
 429379.3041 -14557.19258 208310.7599
 430574.5122 -13745.88972 205884.7038
 431921.4198 -13238.12623 203077.597
 433221.1118 -12256.78225 200352.4666
 434394.422 -10876.37629 197876.3803
 435884.1014 -7369.057084 194737.3061
 436294.9025 -3395.29154 193925.5047
 0 0 0
 0 0 0
 0 0 0
 0 0 0
 430505.228 -16729.11865 205808.7865
 431643.0927 -15394.4895 203516.8826
 432693.8286 -13662.0462 201398.2881
 433223.0641 -12143.47686 200355.1446
 0 0 0
 0 0 0
 0 0 0
 0 0 0
 0 0 0
 0 0 0
 426545.5231 15420.18514 213993.0043
 427464.0632 13961.93088 212253.1754
 428234.303 12085.93608 210810.7758
 428532.678 10460.96148 210290.7118
 0 0 0
 0 0 0
 0 0 0
 0 0 0
 425009.0492 16604.32722 216941.1803
 425948.1499 13741.69542 215293.3133
 426735.8337 12671.11424 213793.9251
 427730.1452 11984.92662 211837.5692
 428692.5158 10862.07755 209944.3104
 429561.3068 9386.431637 208232.6821
 430764.6603 5890.966969 205861.5438
 430993.3011 1910.835591 205458.0113
 0 0 0
 0 0 0
 424877.2936 11538.25787 217527.068
 425849.5438 10578.5991 215666.7119
 426944.5612 9768.762444 213529.3521
 428093.8985 9210.099981 211240.7618
 429189.2919 8482.711392 209036.9982
 430150.1287 7337.313487 207096.3591
 430922.9952 5362.728293 205544.3618
 431119.9408 3562.280905 205170.1198
 0 0 0
 424652.8057 5505.90786 218200.7125
 425000.8637 6097.408224 217506.227
 425935.8691 6255.167835 215664.9706
 427142.3691 6060.076616 213271.056
 428402.0559 5781.953871 210737.0846
 429578.8365 5375.955197 208338.6514
 430577.6014 4733.587276 206282.3153
 431338.2978 3796.170552 204706.4563
 431867.8995 2766.157429 203603.3817
 432537.2803 586.3292125 202195.5209
 424385.064 2117.130686 218780.0415
 424980.2302 2071.874045 217622.1097
 426000.5232 2083.693526 215617.9114
 427263.4323 2047.067268 213104.7635
 428575.4066 1968.383979 210454.5499
 429791.3785 1840.347848 207961.1872
 430811.884 1637.631131 205840.4967
 431580.1893 1344.113329 204226.8465
 432090.7264 935.2703451 203146.7467
 432378.4386 240.8301008 202535.6737
 424385.064 -2117.130686 218780.0415
 424980.2302 -2071.874045 217622.1097
 426000.5232 -2083.693526 215617.9114
 427263.4323 -2047.067268 213104.7635
 428575.4066 -1968.383979 210454.5499
 429791.3785 -1840.347848 207961.1872
 430811.884 -1637.631131 205840.4967
 431580.1893 -1344.113329 204226.8465
 432090.7264 -935.2703451 203146.7467
 432378.4386 -240.8301008 202535.6737
 424652.8057 -5505.90786 218200.7125
 425000.8637 -6097.408224 217506.227
 425935.8691 -6255.167835 215664.9706
 427142.3691 -6060.076616 213271.056
 428402.0559 -5781.953871 210737.0846
 429578.8365 -5375.955197 208338.6514
 430577.6014 -4733.587276 206282.3153
 431338.2978 -3796.170552 204706.4563
 431867.8995 -2766.157429 203603.3817
 432537.2803 -586.3292125 202195.5209
 0 0 0
 424877.2936 -11538.25787 217527.068
 425849.5438 -10578.5991 215666.7119
 426944.5612 -9768.762444 213529.3521
 428093.8985 -9210.099981 211240.7618
 429189.2919 -8482.711392 209036.9982
 430150.1287 -7337.313487 207096.3591
 430922.9952 -5362.728293 205544.3618
 431119.9408 -3562.280905 205170.1198
 0 0 0
 0 0 0
 425009.0492 -16604.32722 216941.1803
 425948.1499 -13741.69542 215293.3133
 426735.8337 -12671.11424 213793.9251
 427730.1452 -11984.92662 211837.5692
 428692.5158 -10862.07755 209944.3104
 429561.3068 -9386.431637 208232.6821
 430764.6603 -5890.966969 205861.5438
 430993.3011 -1910.835591 205458.0113
 0 0 0
 0 0 0
 0 0 0
 0 0 0
 426545.5231 -15420.18514 213993.0043
 427464.0632 -13961.93088 212253.1754
 428234.303 -12085.93608 210810.7758
 428532.678 -10460.96148 210290.7118
 0 0 0
 0 0 0
 0 0 0
 0 0 0
 0 0 0
 0 0 0
 422124.4413 14267.66855 222664.0092
 422845.8645 12707.5972 221386.0048
 423356.8882 10713.84679 220513.1061
 423437.9495 9004.834543 220433.8613
 0 0 0
 0 0 0
 0 0 0
 0 0 0
 421325.7145 15988.05582 224055.5638
 422046.1995 13022.56759 222888.5136
 422451.1512 11729.49924 222192.0677
 423115.8621 10884.71556 220966.8787
 423760.186 9637.405441 219786.9343
 424340.8005 8085.242577 218726.7362
 425275.459 4618.265552 217005.3615
 425330.7755 658.8325208 216945.0822
 0 0 0
 0 0 0
 421211.2067 11045.52967 224568.4459
 421946.5588 9993.195496 223233.3059
 422682.1691 9042.131798 221878.1086
 423459.6688 8355.474191 220417.7085
 424200.9404 7525.148052 219017.8204
 424845.4893 6311.545692 217803.457
 425354.5019 4316.421816 216856.6059
 425376.4402 2513.911654 216841.9601
 0 0 0
 421372.6211 5341.67576 224473.7222
 421453.3211 5819.808873 224310.2746
 422057.5719 5886.525489 223169.5009
 422878.4877 5600.892158 221617.4315
 423743.5758 5241.768823 219967.673
 424546.3686 4769.928849 218425.0443
 425212.5716 4082.307354 217139.2987
 425701.3526 3129.318645 216195.3677
 426044.0192 2132.328556 215531.4785
 426614.6768 130.519083 214410.2885
 421098.401 2053.110523 225041.7577
 421460.1217 1978.058498 224364.2671
 422131.4197 1957.826094 223098.8631
 422995.0158 1890.088168 221457.7057
 423901.918 1783.831704 219717.667
 424735.1307 1633.312262 218103.8109
 425415.7181 1414.910385 216774.8512
 425907.0533 1115.844316 215809.6573
 426224.486 718.7473132 215183.7407
 426411.8096 63.47485158 214813.4909
 421098.401 -2053.110523 225041.7577
 421460.1217 -1978.058498 224364.2671
 422131.4197 -1957.826094 223098.8631
 422995.0158 -1890.088168 221457.7057
 423901.918 -1783.831704 219717.667
 424735.1307 -1633.312262 218103.8109
 425415.7181 -1414.910385 216774.8512
 425907.0533 -1115.844316 215809.6572
 426224.486 -718.7473132 215183.7407
 426411.8096 -63.47485158 214813.4909
 421372.6211 -5341.67576 224473.7222
 421453.3211 -5819.808873 224310.2746
 422057.5719 -5886.525489 223169.5009
 422878.4877 -5600.892158 221617.4315
 423743.5758 -5241.768823 219967.673
 424546.3686 -4769.928849 218425.0443
 425212.5716 -4082.307354 217139.2987
 425701.3526 -3129.318645 216195.3677
 426044.0192 -2132.328556 215531.4785
 426614.6768 -130.519083 214410.2885
 0 0 0
 421211.2067 -11045.52967 224568.4459
 421946.5588 -9993.195496 223233.3059
 422682.1691 -9042.131798 221878.1086
 423459.6688 -8355.474191 220417.7085
 424200.9404 -7525.148052 219017.8204
 424845.4893 -6311.545692 217803.457
 425354.5019 -4316.421816 216856.6059
 425376.4402 -2513.911654 216841.9601
 0 0 0
 0 0 0
 421325.7145 -15988.05582 224055.5638
 422046.1995 -13022.56759 222888.5136
 422451.1512 -11729.49924 222192.0677
 423115.8621 -10884.71556 220966.8787
 423760.186 -9637.405441 219786.9343
 424340.8005 -8085.242577 218726.7362
 425275.459 -4618.265552 217005.3615
 425330.7755 -658.8325208 216945.0822
 0 0 0
 0 0 0
 0 0 0
 0 0 0
 422124.4413 -14267.66855 222664.0092
 422845.8645 -12707.5972 221386.0048
 423356.8882 -10713.84679 220513.1061
 423437.9495 -9004.834543 220433.8613
 0 0 0
 0 0 0
 0 0 0
 0 0 0
 0 0 0
 0 0 0
 417374.4112 13257.99636 231505.2865
 417923.4783 11619.1104 230601.0274
 418202.6808 9535.033475 230190.0784
 418086.2435 7763.757654 230467.9769
 0 0 0
 0 0 0
 0 0 0
 0 0 0
 417251.0927 15424.02156 231593.3861
 417782.2306 12383.4402 230817.0911
 417839.8845 10907.22366 230787.2064
 418208.0069 9931.305319 230163.6449
 418564.8485 8583.473307 229568.4274
 418884.4534 6974.810165 229039.3809
 419578.7813 3547.871473 227844.0917
 419475.7083 -375.7921914 228061.0887
 0 0 0
 0 0 0
 417158.6341 10602.31896 232030.4639
 417690.2229 9477.201651 231121.0325
 418104.9247 8409.156824 230411.4349
 418545.3979 7613.924815 229638.0833
 418963.2574 6697.491921 228903.4814
 419319.154 5431.8778 228284.5004
 419588.7919 3431.210793 227827.4431
 419451.0437 1638.904362 228100.8708
 0 0 0
 417671.8205 5191.030731 231290.2394
 417518.5208 5573.428822 231557.9689
 417834.6563 5564.25875 230987.2514
 418310.7206 5201.499866 230132.4765
 418815.5126 4771.884626 229221.8725
 419273.8475 4243.514586 228392.8735
 419634.7925 3520.41619 227741.342
 419876.7339 2561.321265 227307.8073
 420051.7375 1600.743143 226993.0545
 420536.2112 -242.8392905 226099.7732
 417391.8691 1994.7104 231844.6032
 417555.6783 1895.275063 231550.2856
 417923.4877 1848.238399 230886.1489
 418428.9388 1753.622484 229969.6052
 418964.2106 1623.009445 228993.9461
 419443.1878 1452.906031 228116.5766
 419810.8111 1222.023701 227440.6754
 420050.7707 920.6737214 226998.6205
 420195.4492 536.9007131 226731.9287
 420293.0097 -81.90150686 226551.6511
 417391.8691 -1994.7104 231844.6032
 417555.6783 -1895.275063 231550.2856
 417923.4877 -1848.238399 230886.1489
 418428.9388 -1753.622484 229969.6052
 418964.2106 -1623.009445 228993.9461
 419443.1878 -1452.906031 228116.5766
 419810.8111 -1222.023701 227440.6754
 420050.7707 -920.6737214 226998.6205
 420195.4492 -536.9007131 226731.9287
 420293.0097 81.90150686 226551.6511
 417671.8205 -5191.030731 231290.2394
 417518.5208 -5573.428822 231557.9689
 417834.6563 -5564.25875 230987.2514
 418310.7206 -5201.499866 230132.4765
 418815.5126 -4771.884626 229221.8725
 419273.8475 -4243.514586 228392.8735
 419634.7925 -3520.41619 227741.342
 419876.7339 -2561.321265 227307.8073
 420051.7375 -1600.743143 226993.0545
 420536.2112 242.8392905 226099.7732
 0 0 0
 417158.6341 -10602.31896 232030.4639
 417690.2229 -9477.201651 231121.0325
 418104.9247 -8409.156824 230411.4349
 418545.3979 -7613.924815 229638.0833
 418963.2574 -6697.491921 228903.4814
 419319.154 -5431.8778 228284.5004
 419588.7919 -3431.210793 227827.4431
 419451.0437 -1638.904362 228100.8708
 0 0 0
 0 0 0
 417251.0927 -15424.02156 231593.3861
 417782.2306 -12383.4402 230817.0911
 417839.8845 -10907.22366 230787.2064
 418208.0069 -9931.305319 230163.6449
 418564.8485 -8583.473307 229568.4274
 418884.4534 -6974.810165 229039.3809
 419578.7813 -3547.871473 227844.0917
 419475.7083 375.7921914 228061.0887
 0 0 0
 0 0 0
 0 0 0
 0 0 0
 417374.4112 -13257.99636 231505.2865
 417923.4783 -11619.1104 230601.0274
 418202.6808 -9535.033475 230190.0784
 418086.2435 -7763.757654 230467.9769
 0 0 0
 0 0 0
 0 0 0
 0 0 0
 0 0 0
 0 0 0
 412407.5427 12369.22241 240289.1849
 412810.0427 10672.2973 239678.6224
 412887.9984 8522.746737 239630.413
 412597.5506 6708.198888 240187.7029
 0 0 0
 0 0 0
 0 0 0
 0 0 0
 412885.0393 14900.83834 239323.5898
 413255.0013 11807.77304 238857.1785
 413005.8096 10184.29613 239362.3877
 413115.0758 9104.287622 239217.3016
 413220.8226 7679.637929 239084.6006
 413312.6152 6032.646765 238973.1378
 413800.7961 2654.11316 238188.4298
 413558.4042 -1224.749782 238620.6562
 0 0 0
 0 0 0
 412814.6831 10196.2723 239691.3531
 413174.1423 9015.51722 239118.6313
 413310.18 7854.251189 238924.4172
 413455.7534 6971.828643 238699.8216
 413589.5518 5987.877567 238494.6524
 413692.1567 4685.600391 238345.7907
 413752.6674 2690.35929 238271.617
 413474.1214 915.3094889 238768.0557
 0 0 0
 413642.436 5048.270647 238424.6661
 413285.668 5349.170056 239036.0104
 413355.0787 5277.841726 238917.5478
 413532.0528 4852.354998 238620.1317
 413720.671 4365.28774 238302.3751
 413875.0776 3791.820506 238043.932
 413967.0523 3042.968274 237894.7062
 413992.8169 2084.462465 237860.1982
 414022.3277 1159.755095 237815.1349
 414435.238 -546.4416893 237097.0396
 413356.2227 1939.556769 238965.9863
 413352.7904 1820.107781 238972.8629
 413461.454 1751.168228 238785.3236
 413656.0874 1634.503325 238448.8228
 413864.5389 1483.861041 238087.8261
 414030.1392 1297.988698 237800.8208
 414121.433 1057.915116 237642.9904
 414141.0825 756.5652118 237609.8961
 414135.6948 386.0765098 237620.177
 414155.7769 -200.0990348 237585.403
 413356.2227 -1939.556769 238965.9863
 413352.7904 -1820.107781 238972.8629
 413461.454 -1751.168228 238785.3236
 413656.0874 -1634.503325 238448.8228
 413864.5389 -1483.861041 238087.8261
 414030.1392 -1297.988698 237800.8208
 414121.433 -1057.915116 237642.9904
 414141.0825 -756.5652118 237609.8961
 414135.6948 -386.0765098 237620.177
 414155.7769 200.0990348 237585.403
 413642.436 -5048.270647 238424.6661
 413285.668 -5349.170056 239036.0104
 413355.0787 -5277.841726 238917.5478
 413532.0528 -4852.354998 238620.1317
 413720.671 -4365.28774 238302.3751
 413875.0776 -3791.820506 238043.932
 413967.0523 -3042.968274 237894.7062
 413992.8169 -2084.462465 237860.1982
 414022.3277 -1159.755095 237815.1349
 414435.238 546.4416893 237097.0396
 0 0 0
 412814.6831 -10196.2723 239691.3531
 413174.1423 -9015.51722 239118.6313
 413310.18 -7854.251189 238924.4172
 413455.7534 -6971.828643 238699.8216
 413589.5518 -5987.877567 238494.6524
 413692.1567 -4685.600391 238345.7907
 413752.6674 -2690.35929 238271.617
 413474.1214 -915.3094889 238768.0557
 0 0 0
 0 0 0
 412885.0393 -14900.83834 239323.5898
 413255.0013 -11807.77304 238857.1785
 413005.8096 -10184.29613 239362.3877
 413115.0758 -9104.287622 239217.3016
 413220.8226 -7679.637929 239084.6006
 413312.6152 -6032.646765 238973.1378
 413800.7961 -2654.11316 238188.4298
 413558.4042 1224.749782 238620.6562
 0 0 0
 0 0 0
 0 0 0
 0 0 0
 412407.5427 -12369.22241 240289.1849
 412810.0427 -10672.2973 239678.6224
 412887.9984 -8522.746737 239630.413
 412597.5506 -6708.198888 240187.7029
 0 0 0
 0 0 0
 0 0 0
 0 0 0
 0 0 0
 0 0 0
 407319.4253 11579.08951 248854.7403
 407600.8509 9841.503148 248468.4335
 407509.0179 7647.283123 248696.1815
 407069.5426 5805.049433 249464.547
 0 0 0
 0 0 0
 0 0 0
 0 0 0
 408318.1814 14409.08014 247063.7822
 408553.5063 11281.55336 246837.2547
 408039.4523 9541.232228 247759.2411
 407928.8757 8380.712773 247983.1997
 407821.954 6899.910933 248204.5858
 407721.5417 5229.820265 248410.275
 408039.8629 1905.671065 247934.8906
 407679.2268 -1922.831768 248527.3065
 0 0 0
 0 0 0
 408267.4241 9817.97149 247372.5716
 408484.1787 8595.590797 247060.039
 408383.9201 7361.758685 247265.5448
 408278.8676 6411.616153 247465.4092
 408171.28 5377.087878 247667.4472
 408059.3403 4051.264908 247877.0529
 407943.7653 2069.53446 248091.6618
 407545.3688 316.0433753 248753.9825
 0 0 0
 409371.5417 4910.160247 245688.2221
 408839.5405 5140.715007 246567.7888
 408701.0269 5018.652641 246799.8278
 408624.9187 4543.374495 246935.0215
 408544.6149 4011.239246 247077.0707
 408440.0798 3403.515432 247258.9504
 408303.4969 2637.391007 247493.7775
 408146.724 1684.28537 247760.542
 408054.851 793.5883959 247916.2764
 408411.9642 -793.8529754 247327.533
 409078.0855 1886.304303 246218.2631
 408934.3947 1750.263102 246457.8436
 408825.3195 1663.54724 246639.336
 408757.005 1529.263459 246753.4063
 408687.2374 1362.814186 246869.9172
 408585.449 1164.872907 247039.3596
 408441.571 918.5181699 247278.2051
 408274.9957 618.784595 247554.0674
 408144.093 260.9574296 247770.4635
 408100.3653 -296.3667513 247842.4404
 409078.0855 -1886.304303 246218.2631
 408934.3947 -1750.263102 246457.8436
 408825.3195 -1663.54724 246639.336
 408757.005 -1529.263459 246753.4063
 408687.2374 -1362.814186 246869.9172
 408585.449 -1164.872907 247039.3596
 408441.571 -918.5181699 247278.2051
 408274.9957 -618.784595 247554.0674
 408144.093 -260.9574296 247770.4635
 408100.3653 296.3667513 247842.4404
 409371.5417 -4910.160247 245688.2221
 408839.5405 -5140.715007 246567.7888
 408701.0269 -5018.652641 246799.8278
 408624.9187 -4543.374495 246935.0215
 408544.6149 -4011.239246 247077.0707
 408440.0798 -3403.515432 247258.9504
 408303.4969 -2637.391007 247493.7775
 408146.724 -1684.28537 247760.542
 408054.851 -793.5883959 247916.2764
 408411.9642 793.8529754 247327.533
 0 0 0
 408267.4241 -9817.97149 247372.5716
 408484.1787 -8595.590797 247060.039
 408383.9201 -7361.758685 247265.5448
 408278.8676 -6411.616153 247465.4092
 408171.28 -5377.087878 247667.4472
 408059.3403 -4051.264908 247877.0529
 407943.7653 -2069.53446 248091.6618
 407545.3688 -316.0433753 248753.9825
 0 0 0
 0 0 0
 408318.1814 -14409.08014 247063.7822
 408553.5063 -11281.55336 246837.2547
 408039.4523 -9541.232228 247759.2411
 407928.8757 -8380.712773 247983.1997
 407821.954 -6899.910933 248204.5858
 407721.5417 -5229.820265 248410.275
 408039.8629 -1905.671065 247934.8906
 407679.2268 1922.831768 248527.3065
 0 0 0
 0 0 0
 0 0 0
 0 0 0
 407319.4253 -11579.08951 248854.7403
 407600.8509 -9841.503148 248468.4335
 407509.0179 -7647.283123 248696.1815
 407069.5426 -5805.049433 249464.547
 0 0 0
 0 0 0
 0 0 0
 0 0 0
 0 0 0
 0 0 0
 402191.3549 10868.31193 257091.1612
 402375.8946 9103.979738 256870.8396
 402144.906 6881.731709 257301.3557
 401581.2401 5024.120413 258223.0376
 0 0 0
 0 0 0
 0 0 0
 0 0 0
 403631.8245 13941.90571 254673.9971
 403757.0351 10793.97886 254628.3918
 403019.3626 8961.58966 255865.1102
 402726.9779 7739.951597 256364.8684
 402445.2669 6219.926035 256848.1866
 402188.0546 4538.908177 257285.9078
 402372.2309 1273.198004 257034.7021
 401914.6882 -2501.655531 257740.5603
 0 0 0
 0 0 0
 403596.9176 9460.785475 254935.0759
 403697.8257 8207.879676 254818.6954
 403401.7294 6918.428144 255325.3833
 403089.38 5916.888992 255843.3378
 402782.9483 4845.969072 256347.9753
 402495.4572 3507.205372 256820.906
 402237.1306 1544.900834 257244.5827
 401740.3111 -184.3357965 258024.3395
 0 0 0
 404939.7147 4775.004451 252928.6423
 404258.5739 4943.858569 254012.6671
 403947.7672 4780.206928 254509.7685
 403662.3533 4265.900077 254971.3277
 403359.6317 3699.274533 255458.7915
 403041.4271 3066.53707 255968.8959