# OOMMF OVF 2.0
#
# Segment count: 1
#
# Begin: Segment
# Begin: Header
#
# Title: Oxs_MinDriver::Magnetization
# Desc: Oxs vector field output
# Desc:  MIF source file: F:/Bogdan/UNIC/2022/Master_degree/Simulation_samples/Cylinder0_5000.mif
# Desc:  Iteration: 108, State id: 15710
# Desc:  Stage: 0, Stage iteration: 108
# Desc:  Stage simulation time: -1 s
# Desc:  Total simulation time: -2 s
# meshunit: m
# meshtype: rectangular
# xbase: -8.9999999999999995e-09
# ybase: -8.9999999999999995e-09
# zbase: -8.6999999999999998e-08
# xnodes: 10
# ynodes: 10
# znodes: 88
# xstepsize: 2.0000000000000001e-09
# ystepsize: 2.0000000000000001e-09
# zstepsize: 2.0000000000000001e-09
# xmin: -1e-08
# ymin: -1e-08
# zmin: -8.7999999999999994e-08
# xmax: 1e-08
# ymax: 1e-08
# zmax: 8.800000000000002e-08
# valuedim: 3
# valuelabels: Magnetization_x Magnetization_y Magnetization_z
# valueunits: A/m A/m A/m
#
# End: Header
#
# Begin: Data Text
 0 0 0
 0 0 0
 0 0 0
 10120.3262 38919.53276 475767.5065
 3834.266882 39206.06036 475836.1635
 -3834.266882 39206.06036 475836.1635
 -10120.3262 38919.53276 475767.5065
 0 0 0
 0 0 0
 0 0 0
 0 0 0
 28857.25119 28857.25119 475716.7113
 23050.85098 30147.24953 475953.4357
 13614.09146 32907.79903 476134.0196
 4608.070654 33711.50779 476250.1141
 -4608.070654 33711.50779 476250.1141
 -13614.09146 32907.79903 476134.0196
 -23050.85098 30147.24953 475953.4357
 -28857.25119 28857.25119 475716.7113
 0 0 0
 0 0 0
 30147.24953 23050.85098 475953.4357
 23911.07778 23911.07778 476265.0439
 14888.60225 25078.55908 476572.415
 5047.25377 25620.78051 476749.3808
 -5047.25377 25620.78051 476749.3808
 -14888.60225 25078.55908 476572.415
 -23911.07778 23911.07778 476265.0439
 -30147.24953 23050.85098 475953.4357
 0 0 0
 38919.53276 10120.3262 475767.5065
 32907.79903 13614.09146 476134.0196
 25078.55908 14888.60225 476572.415
 15612.82425 15612.82425 476953.1955
 5293.898227 15944.81838 477168.3232
 -5293.898227 15944.81838 477168.3232
 -15612.82425 15612.82425 476953.1955
 -25078.55908 14888.60225 476572.415
 -32907.79903 13614.09146 476134.0196
 -38919.53276 10120.3262 475767.5065
 39206.06036 3834.266882 475836.1635
 33711.50779 4608.070654 476250.1141
 25620.78051 5047.25377 476749.3808
 15944.81838 5293.898227 477168.3232
 5406.494377 5406.494377 477402.7764
 -5406.494377 5406.494377 477402.7764
 -15944.81838 5293.898227 477168.3232
 -25620.78051 5047.25377 476749.3808
 -33711.50779 4608.070654 476250.1141
 -39206.06036 3834.266882 475836.1635
 39206.06036 -3834.266882 475836.1635
 33711.50779 -4608.070654 476250.1141
 25620.78051 -5047.25377 476749.3808
 15944.81838 -5293.898227 477168.3232
 5406.494377 -5406.494377 477402.7764
 -5406.494377 -5406.494377 477402.7764
 -15944.81838 -5293.898227 477168.3232
 -25620.78051 -5047.25377 476749.3808
 -33711.50779 -4608.070654 476250.1141
 -39206.06036 -3834.266882 475836.1635
 38919.53276 -10120.3262 475767.5065
 32907.79903 -13614.09146 476134.0196
 25078.55908 -14888.60225 476572.415
 15612.82425 -15612.82425 476953.1955
 5293.898227 -15944.81838 477168.3232
 -5293.898227 -15944.81838 477168.3232
 -15612.82425 -15612.82425 476953.1955
 -25078.55908 -14888.60225 476572.415
 -32907.79903 -13614.09146 476134.0196
 -38919.53276 -10120.3262 475767.5065
 0 0 0
 30147.24953 -23050.85098 475953.4357
 23911.07778 -23911.07778 476265.0439
 14888.60225 -25078.55908 476572.415
 5047.25377 -25620.78051 476749.3808
 -5047.25377 -25620.78051 476749.3808
 -14888.60225 -25078.55908 476572.415
 -23911.07778 -23911.07778 476265.0439
 -30147.24953 -23050.85098 475953.4357
 0 0 0
 0 0 0
 28857.25119 -28857.25119 475716.7113
 23050.85098 -30147.24953 475953.4357
 13614.09146 -32907.79903 476134.0196
 4608.070654 -33711.50779 476250.1141
 -4608.070654 -33711.50779 476250.1141
 -13614.09146 -32907.79903 476134.0196
 -23050.85098 -30147.24953 475953.4357
 -28857.25119 -28857.25119 475716.7113
 0 0 0
 0 0 0
 0 0 0
 0 0 0
 10120.3262 -38919.53276 475767.5065
 3834.266882 -39206.06036 475836.1635
 -3834.266882 -39206.06036 475836.1635
 -10120.3262 -38919.53276 475767.5065
 0 0 0
 0 0 0
 0 0 0
 0 0 0
 0 0 0
 0 0 0
 8644.163471 34165.34275 476161.6103
 3335.841761 34425.29901 476209.6621
 -3335.841761 34425.29901 476209.6621
 -8644.163471 34165.34275 476161.6103
 0 0 0
 0 0 0
 0 0 0
 0 0 0
 25296.35727 25296.35727 476121.8961
 20422.39573 26499.98056 476290.4031
 12032.87794 29232.83496 476416.3332
 4093.029689 30098.83454 476496.7771
 -4093.029689 30098.83454 476496.7771
 -12032.87794 29232.83496 476416.3332
 -20422.39573 26499.98056 476290.4031
 -25296.35727 25296.35727 476121.8961
 0 0 0
 0 0 0
 26499.98056 20422.39573 476290.4031
 21347.11257 21347.11257 476508.6283
 13384.63826 22567.45724 476742.5224
 4553.475145 23154.0732 476880.5155
 -4553.475145 23154.0732 476880.5155
 -13384.63826 22567.45724 476742.5224
 -21347.11257 21347.11257 476508.6283
 -26499.98056 20422.39573 476290.4031
 0 0 0
 34165.34275 8644.163471 476161.6103
 29232.83496 12032.87794 476416.3332
 22567.45724 13384.63826 476742.5224
 14155.1739 14155.1739 477044.1629
 4815.753331 14510.97956 477219.1439
 -4815.753331 14510.97956 477219.1439
 -14155.1739 14155.1739 477044.1629
 -22567.45724 13384.63826 476742.5224
 -29232.83496 12032.87794 476416.3332
 -34165.34275 8644.163471 476161.6103
 34425.29901 3335.841761 476209.6621
 30098.83454 4093.029689 476496.7771
 23154.0732 4553.475145 476880.5155
 14510.97956 4815.753331 477219.1439
 4935.829157 4935.829157 477412.9727
 -4935.829157 4935.829157 477412.9727
 -14510.97956 4815.753331 477219.1439
 -23154.0732 4553.475145 476880.5155
 -30098.83454 4093.029689 476496.7771
 -34425.29901 3335.841761 476209.6621
 34425.29901 -3335.841761 476209.6621
 30098.83454 -4093.029689 476496.7771
 23154.0732 -4553.475145 476880.5155
 14510.97956 -4815.753331 477219.1439
 4935.829157 -4935.829157 477412.9727
 -4935.829157 -4935.829157 477412.9727
 -14510.97956 -4815.753331 477219.1439
 -23154.0732 -4553.475145 476880.5155
 -30098.83454 -4093.029689 476496.7771
 -34425.29901 -3335.841761 476209.6621
 34165.34275 -8644.163471 476161.6103
 29232.83496 -12032.87794 476416.3332
 22567.45724 -13384.63826 476742.5224
 14155.1739 -14155.1739 477044.1629
 4815.753331 -14510.97956 477219.1439
 -4815.753331 -14510.97956 477219.1439
 -14155.1739 -14155.1739 477044.1629
 -22567.45724 -13384.63826 476742.5224
 -29232.83496 -12032.87794 476416.3332
 -34165.34275 -8644.163471 476161.6103
 0 0 0
 26499.98056 -20422.39573 476290.4031
 21347.11257 -21347.11257 476508.6283
 13384.63826 -22567.45724 476742.5224
 4553.475145 -23154.0732 476880.5155
 -4553.475145 -23154.0732 476880.5155
 -13384.63826 -22567.45724 476742.5224
 -21347.11257 -21347.11257 476508.6283
 -26499.98056 -20422.39573 476290.4031
 0 0 0
 0 0 0
 25296.35727 -25296.35727 476121.8961
 20422.39573 -26499.98056 476290.4031
 12032.87794 -29232.83496 476416.3332
 4093.029689 -30098.83454 476496.7771
 -4093.029689 -30098.83454 476496.7771
 -12032.87794 -29232.83496 476416.3332
 -20422.39573 -26499.98056 476290.4031
 -25296.35727 -25296.35727 476121.8961
 0 0 0
 0 0 0
 0 0 0
 0 0 0
 8644.163471 -34165.34275 476161.6103
 3335.841761 -34425.29901 476209.6621
 -3335.841761 -34425.29901 476209.6621
 -8644.163471 -34165.34275 476161.6103
 0 0 0
 0 0 0
 0 0 0
 0 0 0
 0 0 0
 0 0 0
 7045.538634 28314.22689 476571.6486
 2732.535364 28532.28086 476602.8887
 -2732.535364 28532.28086 476602.8887
 -7045.538634 28314.22689 476571.6486
 0 0 0
 0 0 0
 0 0 0
 0 0 0
 20958.5078 20958.5078 476543.1284
 16987.68613 21983.96239 476655.0065
 9992.094085 24362.74191 476737.3346
 3403.951322 25157.98968 476788.5904
 -3403.951322 25157.98968 476788.5904
 -9992.094085 24362.74191 476737.3346
 -16987.68613 21983.96239 476655.0065
 -20958.5078 20958.5078 476543.1284
 0 0 0
 0 0 0
 21983.96239 16987.68613 476655.0065
 17843.13126 17843.13126 476796.7246
 11244.37086 18977.52145 476954.1792
 3836.194385 19542.01129 477048.493
 -3836.194385 19542.01129 477048.493
 -11244.37086 18977.52145 476954.1792
 -17843.13126 17843.13126 476796.7246
 -21983.96239 16987.68613 476655.0065
 0 0 0
 28314.22689 7045.538634 476571.6486
 24362.74191 9992.094085 476737.3346
 18977.52145 11244.37086 476954.1792
 11984.16094 11984.16094 477163.1074
 4091.13763 12333.70014 477287.1397
 -4091.13763 12333.70014 477287.1397
 -11984.16094 11984.16094 477163.1074
 -18977.52145 11244.37086 476954.1792
 -24362.74191 9992.094085 476737.3346
 -28314.22689 7045.538634 476571.6486
 28532.28086 2732.535364 476602.8887
 25157.98968 3403.951322 476788.5904
 19542.01129 3836.194385 477048.493
 12333.70014 4091.13763 477287.1397
 4210.04766 4210.04766 477426.8764
 -4210.04766 4210.04766 477426.8764
 -12333.70014 4091.13763 477287.1397
 -19542.01129 3836.194385 477048.493
 -25157.98968 3403.951322 476788.5904
 -28532.28086 2732.535364 476602.8887
 28532.28086 -2732.535364 476602.8887
 25157.98968 -3403.951322 476788.5904
 19542.01129 -3836.194385 477048.493
 12333.70014 -4091.13763 477287.1397
 4210.04766 -4210.04766 477426.8764
 -4210.04766 -4210.04766 477426.8764
 -12333.70014 -4091.13763 477287.1397
 -19542.01129 -3836.194385 477048.493
 -25157.98968 -3403.951322 476788.5904
 -28532.28086 -2732.535364 476602.8887
 28314.22689 -7045.538634 476571.6486
 24362.74191 -9992.094085 476737.3346
 18977.52145 -11244.37086 476954.1792
 11984.16094 -11984.16094 477163.1074
 4091.13763 -12333.70014 477287.1397
 -4091.13763 -12333.70014 477287.1397
 -11984.16094 -11984.16094 477163.1074
 -18977.52145 -11244.37086 476954.1792
 -24362.74191 -9992.094085 476737.3346
 -28314.22689 -7045.538634 476571.6486
 0 0 0
 21983.96239 -16987.68613 476655.0065
 17843.13126 -17843.13126 476796.7246
 11244.37086 -18977.52145 476954.1792
 3836.194385 -19542.01129 477048.493
 -3836.194385 -19542.01129 477048.493
 -11244.37086 -18977.52145 476954.1792
 -17843.13126 -17843.13126 476796.7246
 -21983.96239 -16987.68613 476655.0065
 0 0 0
 0 0 0
 20958.5078 -20958.5078 476543.1284
 16987.68613 -21983.96239 476655.0065
 9992.094085 -24362.74191 476737.3346
 3403.951322 -25157.98968 476788.5904
 -3403.951322 -25157.98968 476788.5904
 -9992.094085 -24362.74191 476737.3346
 -16987.68613 -21983.96239 476655.0065
 -20958.5078 -20958.5078 476543.1284
 0 0 0
 0 0 0
 0 0 0
 0 0 0
 7045.538634 -28314.22689 476571.6486
 2732.535364 -28532.28086 476602.8887
 -2732.535364 -28532.28086 476602.8887
 -7045.538634 -28314.22689 476571.6486
 0 0 0
 0 0 0
 0 0 0
 0 0 0
 0 0 0
 0 0 0
 5594.039581 22703.55766 476891.1055
 2171.866462 22875.17967 476910.7678
 -2171.866462 22875.17967 476910.7678
 -5594.039581 22703.55766 476891.1055
 0 0 0
 0 0 0
 0 0 0
 0 0 0
 16807.10395 16807.10395 476872.0099
 13634.20833 17629.04731 476943.5987
 8006.74602 19569.17492 476995.6087
 2727.66147 20232.21058 477027.346
 -2727.66147 20232.21058 477027.346
 -8006.74602 19569.17492 476995.6087
 -13634.20833 17629.04731 476943.5987
 -16807.10395 16807.10395 476872.0099
 0 0 0
 0 0 0
 17629.04731 13634.20833 476943.5987
 14348.74452 14348.74452 477032.5967
 9063.213119 15307.96102 477132.472
 3096.524007 15795.3738 477192.6121
 -3096.524007 15795.3738 477192.6121
 -9063.213119 15307.96102 477132.472
 -14348.74452 14348.74452 477032.5967
 -17629.04731 13634.20833 476943.5987
 0 0 0
 22703.55766 5594.039581 476891.1055
 19569.17492 8006.74602 476995.6087
 15307.96102 9063.213119 477132.472
 9704.445753 9704.445753 477266.7166
 3320.162885 10013.34163 477347.4424
 -3320.162885 10013.34163 477347.4424
 -9704.445753 9704.445753 477266.7166
 -15307.96102 9063.213119 477132.472
 -19569.17492 8006.74602 476995.6087
 -22703.55766 5594.039581 476891.1055
 22875.17967 2171.866462 476910.7678
 20232.21058 2727.66147 477027.346
 15795.3738 3096.524007 477192.6121
 10013.34163 3320.162885 477347.4424
 3426.402607 3426.402607 477439.4106
 -3426.402607 3426.402607 477439.4106
 -10013.34163 3320.162885 477347.4424
 -15795.3738 3096.524007 477192.6121
 -20232.21058 2727.66147 477027.346
 -22875.17967 2171.866462 476910.7678
 22875.17967 -2171.866462 476910.7678
 20232.21058 -2727.66147 477027.346
 15795.3738 -3096.524007 477192.6121
 10013.34163 -3320.162885 477347.4424
 3426.402607 -3426.402607 477439.4106
 -3426.402607 -3426.402607 477439.4106
 -10013.34163 -3320.162885 477347.4424
 -15795.3738 -3096.524007 477192.6121
 -20232.21058 -2727.66147 477027.346
 -22875.17967 -2171.866462 476910.7678
 22703.55766 -5594.039581 476891.1055
 19569.17492 -8006.74602 476995.6087
 15307.96102 -9063.213119 477132.472
 9704.445753 -9704.445753 477266.7166
 3320.162885 -10013.34163 477347.4424
 -3320.162885 -10013.34163 477347.4424
 -9704.445753 -9704.445753 477266.7166
 -15307.96102 -9063.213119 477132.472
 -19569.17492 -8006.74602 476995.6087
 -22703.55766 -5594.039581 476891.1055
 0 0 0
 17629.04731 -13634.20833 476943.5987
 14348.74452 -14348.74452 477032.5967
 9063.213119 -15307.96102 477132.472
 3096.524007 -15795.3738 477192.6121
 -3096.524007 -15795.3738 477192.6121
 -9063.213119 -15307.96102 477132.472
 -14348.74452 -14348.74452 477032.5967
 -17629.04731 -13634.20833 476943.5987
 0 0 0
 0 0 0
 16807.10395 -16807.10395 476872.0099
 13634.20833 -17629.04731 476943.5987
 8006.74602 -19569.17492 476995.6087
 2727.66147 -20232.21058 477027.346
 -2727.66147 -20232.21058 477027.346
 -8006.74602 -19569.17492 476995.6087
 -13634.20833 -17629.04731 476943.5987
 -16807.10395 -16807.10395 476872.0099
 0 0 0
 0 0 0
 0 0 0
 0 0 0
 5594.039581 -22703.55766 476891.1055
 2171.866462 -22875.17967 476910.7678
 -2171.866462 -22875.17967 476910.7678
 -5594.039581 -22703.55766 476891.1055
 0 0 0
 0 0 0
 0 0 0
 0 0 0
 0 0 0
 0 0 0
 4366.65219 17832.47569 477110.8953
 1695.534082 17962.0932 477123.0027
 -1695.534082 17962.0932 477123.0027
 -4366.65219 17832.47569 477110.8953
 0 0 0
 0 0 0
 0 0 0
 0 0 0
 13203.67313 13203.67313 477098.7291
 10706.76764 13839.18807 477143.2838
 6277.595715 15368.73216 477175.2981
 2137.546939 15894.16894 477194.5909
 -2137.546939 15894.16894 477194.5909
 -6277.595715 15368.73216 477175.2981
 -10706.76764 13839.18807 477143.2838
 -13203.67313 13203.67313 477098.7291
 0 0 0
 0 0 0
 13839.18807 10706.76764 477143.2838
 11270.57496 11270.57496 477197.883
 7122.573642 12036.97814 477259.103
 2434.512176 12430.36034 477295.957
 -2434.512176 12430.36034 477295.957
 -7122.573642 12036.97814 477259.103
 -11270.57496 11270.57496 477197.883
 -13839.18807 10706.76764 477143.2838
 0 0 0
 17832.47569 4366.65219 477110.8953
 15368.73216 6277.595715 477175.2981
 12036.97814 7122.573642 477259.103
 7642.400974 7642.400974 477341.6583
 2617.235493 7895.60104 477391.5383
 -2617.235493 7895.60104 477391.5383
 -7642.400974 7642.400974 477341.6583
 -12036.97814 7122.573642 477259.103
 -15368.73216 6277.595715 477175.2981
 -17832.47569 4366.65219 477110.8953
 17962.0932 1695.534082 477123.0027
 15894.16894 2137.546939 477194.5909
 12430.36034 2434.512176 477295.957
 7895.60104 2617.235493 477391.5383
 2705.036942 2705.036942 477448.6746
 -2705.036942 2705.036942 477448.6746
 -7895.60104 2617.235493 477391.5383
 -12430.36034 2434.512176 477295.957
 -15894.16894 2137.546939 477194.5909
 -17962.0932 1695.534082 477123.0027
 17962.0932 -1695.534082 477123.0027
 15894.16894 -2137.546939 477194.5909
 12430.36034 -2434.512176 477295.957
 7895.60104 -2617.235493 477391.5383
 2705.036942 -2705.036942 477448.6746
 -2705.036942 -2705.036942 477448.6746
 -7895.60104 -2617.235493 477391.5383
 -12430.36034 -2434.512176 477295.957
 -15894.16894 -2137.546939 477194.5909
 -17962.0932 -1695.534082 477123.0027
 17832.47569 -4366.65219 477110.8953
 15368.73216 -6277.595715 477175.2981
 12036.97814 -7122.573642 477259.103
 7642.400974 -7642.400974 477341.6583
 2617.235493 -7895.60104 477391.5383
 -2617.235493 -7895.60104 477391.5383
 -7642.400974 -7642.400974 477341.6583
 -12036.97814 -7122.573642 477259.103
 -15368.73216 -6277.595715 477175.2981
 -17832.47569 -4366.65219 477110.8953
 0 0 0
 13839.18807 -10706.76764 477143.2838
 11270.57496 -11270.57496 477197.883
 7122.573642 -12036.97814 477259.103
 2434.512176 -12430.36034 477295.957
 -2434.512176 -12430.36034 477295.957
 -7122.573642 -12036.97814 477259.103
 -11270.57496 -11270.57496 477197.883
 -13839.18807 -10706.76764 477143.2838
 0 0 0
 0 0 0
 13203.67313 -13203.67313 477098.7291
 10706.76764 -13839.18807 477143.2838
 6277.595715 -15368.73216 477175.2981
 2137.546939 -15894.16894 477194.5909
 -2137.546939 -15894.16894 477194.5909
 -6277.595715 -15368.73216 477175.2981
 -10706.76764 -13839.18807 477143.2838
 -13203.67313 -13203.67313 477098.7291
 0 0 0
 0 0 0
 0 0 0
 0 0 0
 4366.65219 -17832.47569 477110.8953
 1695.534082 -17962.0932 477123.0027
 -1695.534082 -17962.0932 477123.0027
 -4366.65219 -17832.47569 477110.8953
 0 0 0
 0 0 0
 0 0 0
 0 0 0
 0 0 0
 0 0 0
 3372.073589 13827.37488 477251.8246
 1309.186482 13923.06298 477259.1598
 -1309.186482 13923.06298 477259.1598
 -3372.073589 13827.37488 477251.8246
 0 0 0
 0 0 0
 0 0 0
 0 0 0
 10240.40065 10240.40065 477244.3187
 8296.782214 10722.17141 477271.4843
 4857.295129 11905.89359 477290.8209
 1652.858623 12311.36378 477302.3881
 -1652.858623 12311.36378 477302.3881
 -4857.295129 11905.89359 477290.8209
 -8296.782214 10722.17141 477271.4843
 -10240.40065 10240.40065 477244.3187
 0 0 0
 0 0 0
 10722.17141 8296.782214 477271.4843
 8728.342818 8728.342818 477304.4137
 5513.543393 9321.718122 477341.1544
 1884.219304 9627.338915 477363.2111
 -1884.219304 9627.338915 477363.2111
 -5513.543393 9321.718122 477341.1544
 -8728.342818 8728.342818 477304.4137
 -10722.17141 8296.782214 477271.4843
 0 0 0
 13827.37488 3372.073589 477251.8246
 11905.89359 4857.295129 477290.8209
 9321.718122 5513.543393 477341.1544
 5918.85993 5918.85993 477390.6215
 2027.29494 6117.15517 477420.5083
 -2027.29494 6117.15517 477420.5083
 -5918.85993 5918.85993 477390.6215
 -9321.718122 5513.543393 477341.1544
 -11905.89359 4857.295129 477290.8209
 -13827.37488 3372.073589 477251.8246
 13923.06298 1309.186482 477259.1598
 12311.36378 1652.858623 477302.3881
 9627.338915 1884.219304 477363.2111
 6117.15517 2027.29494 477420.5083
 2096.385605 2096.385605 477454.7954
 -2096.385605 2096.385605 477454.7954
 -6117.15517 2027.29494 477420.5083
 -9627.338915 1884.219304 477363.2111
 -12311.36378 1652.858623 477302.3881
 -13923.06298 1309.186482 477259.1598
 13923.06298 -1309.186482 477259.1598
 12311.36378 -1652.858623 477302.3881
 9627.338915 -1884.219304 477363.2111
 6117.15517 -2027.29494 477420.5083
 2096.385605 -2096.385605 477454.7954
 -2096.385605 -2096.385605 477454.7954
 -6117.15517 -2027.29494 477420.5083
 -9627.338915 -1884.219304 477363.2111
 -12311.36378 -1652.858623 477302.3881
 -13923.06298 -1309.186482 477259.1598
 13827.37488 -3372.073589 477251.8246
 11905.89359 -4857.295129 477290.8209
 9321.718122 -5513.543393 477341.1544
 5918.85993 -5918.85993 477390.6215
 2027.29494 -6117.15517 477420.5083
 -2027.29494 -6117.15517 477420.5083
 -5918.85993 -5918.85993 477390.6215
 -9321.718122 -5513.543393 477341.1544
 -11905.89359 -4857.295129 477290.8209
 -13827.37488 -3372.073589 477251.8246
 0 0 0
 10722.17141 -8296.782214 477271.4843
 8728.342818 -8728.342818 477304.4137
 5513.543393 -9321.718122 477341.1544
 1884.219304 -9627.338915 477363.2111
 -1884.219304 -9627.338915 477363.2111
 -5513.543393 -9321.718122 477341.1544
 -8728.342818 -8728.342818 477304.4137
 -10722.17141 -8296.782214 477271.4843
 0 0 0
 0 0 0
 10240.40065 -10240.40065 477244.3187
 8296.782214 -10722.17141 477271.4843
 4857.295129 -11905.89359 477290.8209
 1652.858623 -12311.36378 477302.3881
 -1652.858623 -12311.36378 477302.3881
 -4857.295129 -11905.89359 477290.8209
 -8296.782214 -10722.17141 477271.4843
 -10240.40065 -10240.40065 477244.3187
 0 0 0
 0 0 0
 0 0 0
 0 0 0
 3372.073589 -13827.37488 477251.8246
 1309.186482 -13923.06298 477259.1598
 -1309.186482 -13923.06298 477259.1598
 -3372.073589 -13827.37488 477251.8246
 0 0 0
 0 0 0
 0 0 0
 0 0 0
 0 0 0
 0 0 0
 2588.745338 10644.29776 477338.3167
 1004.861994 10714.22733 477342.7143
 -1004.861994 10714.22733 477342.7143
 -2588.745338 10644.29776 477338.3167
 0 0 0
 0 0 0
 0 0 0
 0 0 0
 7884.833652 7884.833652 477333.7722
 6382.007284 8246.650001 477350.1168
 3731.337572 9153.951887 477361.6591
 1268.872461 9462.753077 477368.5343
 -1268.872461 9462.753077 477368.5343
 -3731.337572 9153.951887 477361.6591
 -6382.007284 8246.650001 477350.1168
 -7884.833652 7884.833652 477333.7722
 0 0 0
 0 0 0
 8246.650001 6382.007284 477350.1168
 6707.454466 6707.454466 477369.7638
 4233.292027 7159.50793 477391.55
 1446.035718 7392.290099 477404.5814
 -1446.035718 7392.290099 477404.5814
 -4233.292027 7159.50793 477391.55
 -6707.454466 6707.454466 477369.7638
 -8246.650001 6382.007284 477350.1168
 0 0 0
 10644.29776 2588.745338 477338.3167
 9153.951887 3731.337572 477361.6591
 7159.50793 4233.292027 477391.55
 4542.839493 4542.839493 477420.7751
 1555.504201 4694.312197 477438.3888
 -1555.504201 4694.312197 477438.3888
 -4542.839493 4542.839493 477420.7751
 -7159.50793 4233.292027 477391.55
 -9153.951887 3731.337572 477361.6591
 -10644.29776 2588.745338 477338.3167
 10714.22733 1004.861994 477342.7143
 9462.753077 1268.872461 477368.5343
 7392.290099 1446.035718 477404.5814
 4694.312197 1555.504201 477438.3888
 1608.395212 1608.395212 477458.5819
 -1608.395212 1608.395212 477458.5819
 -4694.312197 1555.504201 477438.3888
 -7392.290099 1446.035718 477404.5814
 -9462.753077 1268.872461 477368.5343
 -10714.22733 1004.861994 477342.7143
 10714.22733 -1004.861994 477342.7143
 9462.753077 -1268.872461 477368.5343
 7392.290099 -1446.035718 477404.5814
 4694.312197 -1555.504201 477438.3888
 1608.395212 -1608.395212 477458.5819
 -1608.395212 -1608.395212 477458.5819
 -4694.312197 -1555.504201 477438.3888
 -7392.290099 -1446.035718 477404.5814
 -9462.753077 -1268.872461 477368.5343
 -10714.22733 -1004.861994 477342.7143
 10644.29776 -2588.745338 477338.3167
 9153.951887 -3731.337572 477361.6591
 7159.50793 -4233.292027 477391.55
 4542.839493 -4542.839493 477420.7751
 1555.504201 -4694.312197 477438.3888
 -1555.504201 -4694.312197 477438.3888
 -4542.839493 -4542.839493 477420.7751
 -7159.50793 -4233.292027 477391.55
 -9153.951887 -3731.337572 477361.6591
 -10644.29776 -2588.745338 477338.3167
 0 0 0
 8246.650001 -6382.007284 477350.1168
 6707.454466 -6707.454466 477369.7638
 4233.292027 -7159.50793 477391.55
 1446.035718 -7392.290099 477404.5814
 -1446.035718 -7392.290099 477404.5814
 -4233.292027 -7159.50793 477391.55
 -6707.454466 -6707.454466 477369.7638
 -8246.650001 -6382.007284 477350.1168
 0 0 0
 0 0 0
 7884.833652 -7884.833652 477333.7722
 6382.007284 -8246.650001 477350.1168
 3731.337572 -9153.951887 477361.6591
 1268.872461 -9462.753077 477368.5343
 -1268.872461 -9462.753077 477368.5343
 -3731.337572 -9153.951887 477361.6591
 -6382.007284 -8246.650001 477350.1168
 -7884.833652 -7884.833652 477333.7722
 0 0 0
 0 0 0
 0 0 0
 0 0 0
 2588.745338 -10644.29776 477338.3167
 1004.861994 -10714.22733 477342.7143
 -1004.861994 -10714.22733 477342.7143
 -2588.745338 -10644.29776 477338.3167
 0 0 0
 0 0 0
 0 0 0
 0 0 0
 0 0 0
 0 0 0
 1983.644405 8170.42559 477389.967
 769.8018912 8221.445521 477392.5916
 -769.8018912 8221.445521 477392.5916
 -1983.644405 8170.42559 477389.967
 0 0 0
 0 0 0
 0 0 0
 0 0 0
 6053.73731 6053.73731 477387.2389
 4895.109869 6324.776114 477397.0113
 2858.78042 7017.56915 477403.8672
 971.5565555 7251.563565 477407.9411
 -971.5565555 7251.563565 477407.9411
 -2858.78042 7017.56915 477403.8672
 -4895.109869 6324.776114 477397.0113
 -6053.73731 6053.73731 477387.2389
 0 0 0
 0 0 0
 6324.776114 4895.109869 477397.0113
 5139.201097 5139.201097 477408.6808
 3240.235041 5481.311827 477421.5406
 1106.191062 5657.115289 477429.2038
 -1106.191062 5657.115289 477429.2038
 -3240.235041 5481.311827 477421.5406
 -5139.201097 5139.201097 477408.6808
 -6324.776114 4895.109869 477397.0113
 0 0 0
 8170.42559 1983.644405 477389.967
 7017.56915 2858.78042 477403.8672
 5481.311827 3240.235041 477421.5406
 3474.469534 3474.469534 477438.7159
 1189.057838 3588.849361 477449.0314
 -1189.057838 3588.849361 477449.0314
 -3474.469534 3474.469534 477438.7159
 -5481.311827 3240.235041 477421.5406
 -7017.56915 2858.78042 477403.8672
 -8170.42559 1983.644405 477389.967
 8221.445521 769.8018912 477392.5916
 7251.563565 971.5565555 477407.9411
 5657.115289 1106.191062 477429.2038
 3588.849361 1189.057838 477449.0314
 1229.017292 1229.017292 477460.8364
 -1229.017292 1229.017292 477460.8364
 -3588.849361 1189.057838 477449.0314
 -5657.115289 1106.191062 477429.2038
 -7251.563565 971.5565555 477407.9411
 -8221.445521 769.8018912 477392.5916
 8221.445521 -769.8018912 477392.5916
 7251.563565 -971.5565555 477407.9411
 5657.115289 -1106.191062 477429.2038
 3588.849361 -1189.057838 477449.0314
 1229.017292 -1229.017292 477460.8364
 -1229.017292 -1229.017292 477460.8364
 -3588.849361 -1189.057838 477449.0314
 -5657.115289 -1106.191062 477429.2038
 -7251.563565 -971.5565555 477407.9411
 -8221.445521 -769.8018912 477392.5916
 8170.42559 -1983.644405 477389.967
 7017.56915 -2858.78042 477403.8672
 5481.311827 -3240.235041 477421.5406
 3474.469534 -3474.469534 477438.7159
 1189.057838 -3588.849361 477449.0314
 -1189.057838 -3588.849361 477449.0314
 -3474.469534 -3474.469534 477438.7159
 -5481.311827 -3240.235041 477421.5406
 -7017.56915 -2858.78042 477403.8672
 -8170.42559 -1983.644405 477389.967
 0 0 0
 6324.776114 -4895.109869 477397.0113
 5139.201097 -5139.201097 477408.6808
 3240.235041 -5481.311827 477421.5406
 1106.191062 -5657.115289 477429.2038
 -1106.191062 -5657.115289 477429.2038
 -3240.235041 -5481.311827 477421.5406
 -5139.201097 -5139.201097 477408.6808
 -6324.776114 -4895.109869 477397.0113
 0 0 0
 0 0 0
 6053.73731 -6053.73731 477387.2389
 4895.109869 -6324.776114 477397.0113
 2858.78042 -7017.56915 477403.8672
 971.5565555 -7251.563565 477407.9411
 -971.5565555 -7251.563565 477407.9411
 -2858.78042 -7017.56915 477403.8672
 -4895.109869 -6324.776114 477397.0113
 -6053.73731 -6053.73731 477387.2389
 0 0 0
 0 0 0
 0 0 0
 0 0 0
 1983.644405 -8170.42559 477389.967
 769.8018912 -8221.445521 477392.5916
 -769.8018912 -8221.445521 477392.5916
 -1983.644405 -8170.42559 477389.967
 0 0 0
 0 0 0
 0 0 0
 0 0 0
 0 0 0
 0 0 0
 1522.215152 6275.822259 477420.3266
 590.5850707 6313.195544 477421.8953
 -590.5850707 6313.195544 477421.8953
 -1522.215152 6275.822259 477420.3266
 0 0 0
 0 0 0
 0 0 0
 0 0 0
 4651.145477 4651.145477 477418.6894
 3757.502994 4854.624027 477424.5334
 2192.406278 5383.847193 477428.6113
 744.691885 5561.209024 477431.0313
 -744.691885 5561.209024 477431.0313
 -2192.406278 5383.847193 477428.6113
 -3757.502994 4854.624027 477424.5334
 -4651.145477 4651.145477 477418.6894
 0 0 0
 0 0 0
 4854.624027 3757.502994 477424.5334
 3940.694469 3940.694469 477431.4748
 2482.087719 4199.482304 477439.0798
 846.8746939 4332.083706 477443.5958
 -846.8746939 4332.083706 477443.5958
 -2482.087719 4199.482304 477439.0798
 -3940.694469 3940.694469 477431.4748
 -4854.624027 3757.502994 477424.5334
 0 0 0
 6275.822259 1522.215152 477420.3266
 5383.847193 2192.406278 477428.6113
 4199.482304 2482.087719 477439.0798
 2659.008093 2659.008093 477449.1917
 909.4386336 2745.126281 477455.2424
 -909.4386336 2745.126281 477455.2424
 -2659.008093 2659.008093 477449.1917
 -4199.482304 2482.087719 477439.0798
 -5383.847193 2192.406278 477428.6113
 -6275.822259 1522.215152 477420.3266
 6313.195544 590.5850707 477421.8953
 5561.209024 744.691885 477431.0313
 4332.083706 846.8746939 477443.5958
 2745.126281 909.4386336 477455.2424
 939.5116577 939.5116577 477462.1513
 -939.5116577 939.5116577 477462.1513
 -2745.126281 909.4386336 477455.2424
 -4332.083706 846.8746939 477443.5958
 -5561.209024 744.691885 477431.0313
 -6313.195544 590.5850707 477421.8953
 6313.195544 -590.5850707 477421.8953
 5561.209024 -744.691885 477431.0313
 4332.083706 -846.8746939 477443.5958
 2745.126281 -909.4386336 477455.2424
 939.5116577 -939.5116577 477462.1513
 -939.5116577 -939.5116577 477462.1513
 -2745.126281 -909.4386336 477455.2424
 -4332.083706 -846.8746939 477443.5958
 -5561.209024 -744.691885 477431.0313
 -6313.195544 -590.5850707 477421.8953
 6275.822259 -1522.215152 477420.3266
 5383.847193 -2192.406278 477428.6113
 4199.482304 -2482.087719 477439.0798
 2659.008093 -2659.008093 477449.1917
 909.4386336 -2745.126281 477455.2424
 -909.4386336 -2745.126281 477455.2424
 -2659.008093 -2659.008093 477449.1917
 -4199.482304 -2482.087719 477439.0798
 -5383.847193 -2192.406278 477428.6113
 -6275.822259 -1522.215152 477420.3266
 0 0 0
 4854.624027 -3757.502994 477424.5334
 3940.694469 -3940.694469 477431.4748
 2482.087719 -4199.482304 477439.0798
 846.8746939 -4332.083706 477443.5958
 -846.8746939 -4332.083706 477443.5958
 -2482.087719 -4199.482304 477439.0798
 -3940.694469 -3940.694469 477431.4748
 -4854.624027 -3757.502994 477424.5334
 0 0 0
 0 0 0
 4651.145477 -4651.145477 477418.6894
 3757.502994 -4854.624027 477424.5334
 2192.406278 -5383.847193 477428.6113
 744.691885 -5561.209024 477431.0313
 -744.691885 -5561.209024 477431.0313
 -2192.406278 -5383.847193 477428.6113
 -3757.502994 -4854.624027 477424.5334
 -4651.145477 -4651.145477 477418.6894
 0 0 0
 0 0 0
 0 0 0
 0 0 0
 1522.215152 -6275.822259 477420.3266
 590.5850707 -6313.195544 477421.8953
 -590.5850707 -6313.195544 477421.8953
 -1522.215152 -6275.822259 477420.3266
 0 0 0
 0 0 0
 0 0 0
 0 0 0
 0 0 0
 0 0 0
 1173.133137 4838.132011 477438.0458
 455.0318509 4865.728115 477438.9897
 -455.0318509 4865.728115 477438.9897
 -1173.133137 4838.132011 477438.0458
 0 0 0
 0 0 0
 0 0 0
 0 0 0
 3586.622922 3586.622922 477437.0572
 2895.082726 3740.239326 477440.5726
 1688.009406 4146.000126 477443.015
 573.1085581 4280.983462 477444.4638
 -573.1085581 4280.983462 477444.4638
 -1688.009406 4146.000126 477443.015
 -2895.082726 3740.239326 477440.5726
 -3586.622922 3586.622922 477437.0572
 0 0 0
 0 0 0
 3740.239326 2895.082726 477440.5726
 3033.232497 3033.232497 477444.7301
 1908.73917 3229.732662 477449.261
 650.8983558 3330.10119 477451.9432