# ODT 1.0
# Table Start
# Title: mmArchive Data Table, Mon Dec 12 01:15:54 EET 2022
# Columns: {Oxs_CGEvolve:minEvolver:Max mxHxm} {Oxs_CGEvolve:minEvolver:Total energy} {Oxs_CGEvolve:minEvolver:Delta E} {Oxs_CGEvolve:minEvolver:Bracket count} {Oxs_CGEvolve:minEvolver:Line min count} {Oxs_CGEvolve:minEvolver:Conjugate cycle count} {Oxs_CGEvolve:minEvolver:Cycle count} {Oxs_CGEvolve:minEvolver:Cycle sub count} {Oxs_CGEvolve:minEvolver:Energy calc count} Oxs_UZeeman:AppliedFiled:Energy Oxs_UZeeman:AppliedFiled:B Oxs_UZeeman:AppliedFiled:Bx Oxs_UZeeman:AppliedFiled:By Oxs_UZeeman:AppliedFiled:Bz Oxs_UniformExchange:Ni:Energy {Oxs_UniformExchange:Ni:Max Spin Ang} {Oxs_UniformExchange:Ni:Stage Max Spin Ang} {Oxs_UniformExchange:Ni:Run Max Spin Ang} Oxs_Demag::Energy    Oxs_MinDriver::Iteration {Oxs_MinDriver::Stage iteration} Oxs_MinDriver::Stage Oxs_MinDriver::mx    Oxs_MinDriver::my    Oxs_MinDriver::mz   
# Units:                   A/m                                   J                                    J                                   {}                                       {}                                          {}                                         {}                                      {}                                         {}                                     J                            mT                         mT                          mT                          mT                            J                                deg                                      deg                                        deg                            J                       {}                           {}                         {}                 {}                   {}                   {}           
                   0.097759915604902964                   3.702841707800903e-19                -9.6296497219361793e-35                  55                                       54                                          1                                          54                                      53                                         110                                   0                             0                          0                           0                           0                            5.9506511939096351e-21               1.2975886336127074                       3.461971388058537                          3.461971388058537               3.6433351958618062e-19    108                          108                        0                    5.7439586503874365e-19  6.8150954958079746e-20  0.99983054455003972
                   0.098757557818607178                   3.7028417078009223e-19                -1.9259299443872359e-34                  233                                      203                                         5                                          214                                     151                                        439                                   0                             0                          0                           0                           0                            5.9506546073997838e-21               1.2975890133822623                       5.9762879503717983                         5.9762879503717983              3.6433351617269244e-19    418                          295                        0                    1.7918798460040476e-08  1.735018465609698e-17  0.9998305444483524 
                   0.090214025345613694                  -1.7835335817141418e-19                -2.4074124304840448e-34                  405                                      349                                         8                                          369                                     152                                        758                                  -1.0844662794208226e-18           100                        100                         0                           0                            1.745110145734015e-20               1.5011058182447519                       3.40104676428074                           5.9762879503717983              8.8866181979206823e-19    718                          299                        1                    0.40328565504296832  2.7490370317581748e-18  0.90998377479846049
                   0.094239798764676364                  -1.763643478805533e-18                 0                                    620                                      538                                         11                                         566                                     194                                        1163                                 -4.1314561272161437e-18           200                        200                         0                           0                            2.0704275974880897e-20               1.64573856618771                         3.0874374170706456                         5.9762879503717983              2.3471083724357294e-18    1101                         382                        2                    0.76819216150984715 -5.4919266106264334e-16  0.62654315769536018
                   0.090222911802725833                  -4.22896570354434e-18                 0                                    1036                                     918                                         13                                         968                                     400                                        1960                                 -8.0662140546694647e-18           300.00000000000006         300.00000000000006          0                           0                            5.8237149734064258e-21               1.2461168687651576                       4.4758530736823934                         5.9762879503717983              3.8314246361517183e-18    1883                         781                        3                    0.99987384900262744 -8.3421341794385119e-13  1.0710949096012467e-07
                   0.080034149884824546                  -6.917724657010623e-18                -7.7037197775489434e-34                  1090                                     964                                         14                                         1017                                    48                                         2061                                 -1.0755113833013059e-17           400                        400                         0                           0                            5.2847899895553783e-21               1.1669441930703564                       1.2461168687651576                         5.9762879503717983              3.8321043860128817e-18    1979                         95                         4                    0.9998888876297779  -8.1211402613373599e-14  5.3874073408398851e-08
                   0.081157697035799434                  -9.6065201432650705e-18                 0                                    1144                                     1009                                        15                                         1063                                    45                                         2161                                 -1.3444057207410852e-17           499.99999999999994         500                         0                           0                            4.8355189959264305e-21               1.0975883666661155                       1.1669441930703564                         5.9762879503717983              3.8327015451498542e-18    2070                         90                         5                    0.99990115326064799 -5.5317638370299591e-15  1.7452903108151542e-08
# Table End
e-16  0.62654315769536018
                   0.090222911802725833                  -4.22896570354434e-18                 0                                    1036                                     918                                         13                                         968                                     400                                        1960                                 -8.0662140546694647e-18           300.00000000000006         300.00000000000006          0                           0                            5.8237149734064258e-21               1.2461168687651576                       4.4758530736823934                         5.9762879503717983              3.8314246361517183e-18    1883                         781                        3                    0.99987384900262744 -8.3421341794385119e-13  1.0710949096012467e-07
                   0.080034149884824546                  -6.917724657010623e-18                -7.7037197775489434e-34                  1090                                     964                                         14                                         1017                                    48                                         2061                                 -1.0755113833013059e-17           400                        400                         0                           0                            5.2847899895553783e-21               1.1669441930703564                       1.2461168687651576                         5.9762879503717983              3.8321043860128817e-18    1979                         95                         4                    0.9998888876297779  -8.1211402613373599e-14  5.3874073408398851e-08
                   0.081157697035799434                  -9.6065201432650705e-18                 0                                    1144                                     1009                                        15                                         1063                                    45                                         2161                                 -1.3444057207410852e-17           499.99999999999994         500                         0                           0                            4.8355189959264305e-21               1.0975883666661155                       1.1669441930703564                         5.9762879503717983              3.8327015451498542e-18    2070                         90                         5                    0.99990115326064799 -5.5317638370299591e-15  1.7452903108151542e-08
# Table End
#
# Table Start
# Title: mmArchive Data Table, Mon Dec 12 01:16:47 EET 2022
# Columns: {Oxs_CGEvolve:minEvolver:Max mxHxm} {Oxs_CGEvolve:minEvolver:Total energy} {Oxs_CGEvolve:minEvolver:Delta E} {Oxs_CGEvolve:minEvolver:Bracket count} {Oxs_CGEvolve:minEvolver:Line min count} {Oxs_CGEvolve:minEvolver:Conjugate cycle count} {Oxs_CGEvolve:minEvolver:Cycle count} {Oxs_CGEvolve:minEvolver:Cycle sub count} {Oxs_CGEvolve:minEvolver:Energy calc count} Oxs_UZeeman:AppliedFiled:Energy Oxs_UZeeman:AppliedFiled:B Oxs_UZeeman:AppliedFiled:Bx Oxs_UZeeman:AppliedFiled:By Oxs_UZeeman:AppliedFiled:Bz Oxs_UniformExchange:Ni:Energy {Oxs_UniformExchange:Ni:Max Spin Ang} {Oxs_UniformExchange:Ni:Stage Max Spin Ang} {Oxs_UniformExchange:Ni:Run Max Spin Ang} Oxs_Demag::Energy    Oxs_MinDriver::Iteration {Oxs_MinDriver::Stage iteration} Oxs_MinDriver::Stage Oxs_MinDriver::mx    Oxs_MinDriver::my    Oxs_MinDriver::mz   
# Units:                   A/m                                   J                                    J                                   {}                                       {}                                          {}                                         {}                                      {}                                         {}                                     J                            mT                         mT                          mT                          mT                            J                                deg                                      deg                                        deg                            J                       {}                           {}                         {}                 {}                   {}                   {}           
                   0.097564856944043585                   3.702841707800903e-19                -9.6296497219361793e-35                  55                                       54                                          1                                          54                                      53                                         110                                   0                             0                          0                           0                           0                            5.9506511933247249e-21               1.2975886341510947                       3.461971388058537                          3.461971388058537               3.6433351958676563e-19    108                          108                        0                    8.2971673798094906e-19 -3.0946959695604455e-20  0.99983054455005937
                   0.089165887966683607                  -1.7835335817140546e-19                -4.8148248609680896e-35                  215                                      185                                         4                                          199                                     142                                        402                                  -1.0844661590095197e-18           100                        100                         0                           0                            1.7451100547863019e-20               1.5011060285144813                       4.11065262364371                           4.11065262364371                8.8866170029025123e-19    385                          276                        1                    0.40328561026504178  5.7145336723162053e-19  0.90998379684891417
                   0.093212262448700692                  -1.7636434788055246e-18                 0                                    421                                      362                                         7                                          387                                     185                                        786                                  -4.1314559767640865e-18           200                        200                         0                           0                            2.0704277569200844e-20               1.645738697199238                        3.8962237754956894                         4.11065262364371                2.3471082203893616e-18    748                          362                        2                    0.76819213353518478  3.4945239244648797e-17  0.62654318852973978
                   0.0882724091047071                   -4.2289657035443316e-18                 0                                    822                                      733                                         9                                          776                                     387                                        1559                                 -8.0662140539726093e-18           300.00000000000006         300.00000000000006          0                           0                            5.823718347381197e-21               1.2461172110487355                       4.4410138536309889                         4.4410138536309889              3.8314246320808964e-18    1508                         759                        3                    0.99987384891624675  1.2949479636842603e-16  1.8249686511012573e-07
                   0.099458204365176731                  -6.917724657010613e-18                 0                                    876                                      782                                         10                                         825                                     48                                         1663                                 -1.0755113833004946e-17           400                        400                         0                           0                            5.2847900034402724e-21               1.1669441313609883                       1.2461172110487355                         4.4410138536309889              3.832104385990893e-18    1607                         98                         4                    0.99988888762902361  1.4701936629686239e-17  9.0059767726033393e-08
                   0.090742772066182878                  -9.606520143265069e-18                 0                                    929                                      826                                         11                                         872                                     46                                         1761                                 -1.344405720740028e-17           499.99999999999994         500                         0                           0                            4.8355190351658004e-21               1.0975882984897611                       1.1669441313609883                         4.4410138536309889              3.8327015451000458e-18    1699                         91                         5                    0.99990115325986206  3.0044593701420051e-18  2.822426911525547e-08
# Table End
4648797e-17  0.62654318852973978
                   0.0882724091047071                   -4.2289657035443316e-18                 0                                    822                                      733                                         9                                          776                                     387                                        1559                                 -8.0662140539726093e-18           300.00000000000006         300.00000000000006          0                           0                            5.823718347381197e-21               1.2461172110487355                       4.4410138536309889                         4.4410138536309889              3.8314246320808964e-18    1508                         759                        3                    0.99987384891624675  1.2949479636842603e-16  1.8249686511012573e-07
                   0.099458204365176731                  -6.917724657010613e-18                 0                                    876                                      782                                         10                                         825                                     48                                         1663                                 -1.0755113833004946e-17           400                        400                         0                           0                            5.2847900034402724e-21               1.1669441313609883                       1.2461172110487355                         4.4410138536309889              3.832104385990893e-18    1607                         98                         4                    0.99988888762902361  1.4701936629686239e-17  9.0059767726033393e-08
                   0.090742772066182878                  -9.606520143265069e-18                 0                                    929                                      826                                         11                                         872                                     46                                         1761                                 -1.344405720740028e-17           499.99999999999994         500                         0                           0                            4.8355190351658004e-21               1.0975882984897611                       1.1669441313609883                         4.4410138536309889              3.8327015451000458e-18    1699                         91                         5                    0.99990115325986206  3.0044593701420051e-18  2.822426911525547e-08
# Table End
