# OOMMF OVF 2.0
#
# Segment count: 1
#
# Begin: Segment
# Begin: Header
#
# Title: Oxs_MinDriver::Magnetization
# Desc: Oxs vector field output
# Desc:  MIF source file: F:/Bogdan/UNIC/2022/Master_degree/Simulation_samples/Cylinder0_5000.mif
# Desc:  Iteration: 385, State id: 16318
# Desc:  Stage: 1, Stage iteration: 276
# Desc:  Stage simulation time: 0 s
# Desc:  Total simulation time: -2 s
# meshunit: m
# meshtype: rectangular
# xbase: -8.9999999999999995e-09
# ybase: -8.9999999999999995e-09
# zbase: -8.6999999999999998e-08
# xnodes: 10
# ynodes: 10
# znodes: 88
# xstepsize: 2.0000000000000001e-09
# ystepsize: 2.0000000000000001e-09
# zstepsize: 2.0000000000000001e-09
# xmin: -1e-08
# ymin: -1e-08
# zmin: -8.7999999999999994e-08
# xmax: 1e-08
# ymax: 1e-08
# zmax: 8.800000000000002e-08
# valuedim: 3
# valuelabels: Magnetization_x Magnetization_y Magnetization_z
# valueunits: A/m A/m A/m
#
# End: Header
#
# Begin: Data Text
 0 0 0
 0 0 0
 0 0 0
 295945.6384 34363.39817 373104.8207
 295046.3871 34094.71677 373840.9435
 292845.1414 33498.81348 375621.3838
 290150.8672 32814.58546 377766.5265
 0 0 0
 0 0 0
 0 0 0
 0 0 0
 301643.8614 27574.31522 369083.3365
 301440.1854 27103.3709 369284.5694
 298930.3716 28669.96156 371201.4783
 296840.811 29159.68374 372836.5823
 294176.9544 28922.8791 374960.3417
 291054.0983 27990.36221 377459.8293
 288054.2676 24578.07934 379990.1686
 284828.6526 21787.3991 382583.0879
 0 0 0
 0 0 0
 302650.259 21056.10984 368688.6658
 302490.5263 21272.69798 368807.3008
 300903.5746 21818.85153 370071.4091
 298630.1753 22111.6055 371891.0682
 295704.5486 21990.00692 374228.7146
 292262.5005 21315.00036 376961.7658
 288576.2446 19777.03083 379874.31
 285068.1642 18508.24506 382577.3882
 0 0 0
 305330.1179 9434.512817 366955.5564
 304580.2202 12043.83555 367501.982
 303842.6368 13047.95159 368077.8101
 302308.9066 13533.60049 369321.05
 299970.7664 13740.80512 371215.0332
 296901.5289 13685.48169 373676.4122
 293244.8841 13306.90428 376566.376
 289253.4379 12521.1875 379667.6702
 285417.9384 11301.80766 382597.3613
 282682.9958 7754.387319 384710.3646
 305294.059 3581.645063 367089.336
 305286.0654 4079.047734 367090.7939
 304583.7409 4400.06072 367670.0362
 303050.1118 4578.266661 368932.9756
 300681.1834 4655.199612 370865.2401
 297548.3634 4640.71879 373383.5916
 293798.5284 4520.092451 376342.749
 289688.232 4266.209514 379518.6412
 285656.1992 3814.956838 382567.4493
 282445.6544 2940.904309 384951.5225
 305294.059 -3581.645063 367089.336
 305286.0654 -4079.047734 367090.7939
 304583.7409 -4400.06072 367670.0362
 303050.1118 -4578.266661 368932.9756
 300681.1834 -4655.199612 370865.2401
 297548.3634 -4640.71879 373383.5916
 293798.5284 -4520.092451 376342.749
 289688.232 -4266.209514 379518.6412
 285656.1992 -3814.956838 382567.4493
 282445.6544 -2940.904309 384951.5225
 305330.1179 -9434.512817 366955.5564
 304580.2202 -12043.83555 367501.982
 303842.6368 -13047.95159 368077.8101
 302308.9066 -13533.60049 369321.05
 299970.7664 -13740.80512 371215.0332
 296901.5289 -13685.48169 373676.4122
 293244.8841 -13306.90428 376566.376
 289253.4379 -12521.1875 379667.6702
 285417.9384 -11301.80766 382597.3613
 282682.9958 -7754.387319 384710.3646
 0 0 0
 302650.259 -21056.10984 368688.6658
 302490.5263 -21272.69798 368807.3008
 300903.5746 -21818.85153 370071.4091
 298630.1753 -22111.6055 371891.0682
 295704.5486 -21990.00692 374228.7146
 292262.5005 -21315.00036 376961.7658
 288576.2446 -19777.03083 379874.31
 285068.1642 -18508.24506 382577.3882
 0 0 0
 0 0 0
 301643.8614 -27574.31522 369083.3365
 301440.1854 -27103.3709 369284.5694
 298930.3716 -28669.96156 371201.4783
 296840.811 -29159.68374 372836.5823
 294176.9544 -28922.8791 374960.3417
 291054.0983 -27990.36221 377459.8293
 288054.2676 -24578.07934 379990.1686
 284828.6526 -21787.3991 382583.0879
 0 0 0
 0 0 0
 0 0 0
 0 0 0
 295945.6384 -34363.39817 373104.8207
 295046.3871 -34094.71677 373840.9435
 292845.1414 -33498.81348 375621.3838
 290150.8672 -32814.58546 377766.5265
 0 0 0
 0 0 0
 0 0 0
 0 0 0
 0 0 0
 0 0 0
 291165.6411 31100.97248 377130.1768
 290349.4442 30690.8182 377792.4632
 288244.3301 29952.86363 379460.0156
 285690.3629 29145.3541 381449.1266
 0 0 0
 0 0 0
 0 0 0
 0 0 0
 296765.3356 25450.36134 373168.1738
 296576.8703 24686.24691 373369.2817
 294034.3916 26120.99175 375277.6861
 291998.0409 26608.81007 376830.1828
 289418.8872 26306.25557 378835.7955
 286437.0745 25248.71491 381166.8612
 283660.0936 21687.99771 383455.9341
 280660.8382 18690.06024 385813.4871
 0 0 0
 0 0 0
 297571.416 19393.14043 372890.1041
 297471.5064 19574.64301 372960.3297
 295948.8811 20097.37006 374141.9875
 293736.5652 20391.1642 375865.5371
 290876.9627 20234.90954 378091.2751
 287524.5175 19473.76833 380686.6106
 283972.6631 17795.12539 383425.001
 280693.1299 16351.4821 385896.187
 0 0 0
 300361.9592 8519.817049 371055.2216
 299481.7852 10988.68148 371701.1979
 298791.8487 12037.34364 372223.5951
 297335.3381 12541.18295 373371.5131
 295058.9508 12750.83471 375165.9674
 292043.5208 12676.9846 377520.5257
 288451.3731 12253.0886 380286.1271
 284567.4771 11392.23159 383227.6599
 280969.778 10062.58458 385910.0926
 278687.4644 6476.537526 387638.005
 300186.5316 3281.062717 371280.4226
 300155.0632 3738.187572 371301.5423
 299528.2379 4067.440657 371803.9294
 298072.8742 4253.704198 372969.622
 295763.1183 4331.934266 374802.9929
 292678.3036 4311.644036 377217.0352
 288983.4975 4177.117111 380056.5237
 284966.2844 3899.800532 383080.7743
 281128.5574 3411.995394 385910.5645
 278304.5533 2506.942459 387958.9697
 300186.5316 -3281.062717 371280.4226
 300155.0632 -3738.187572 371301.5423
 299528.2379 -4067.440657 371803.9294
 298072.8742 -4253.704198 372969.622
 295763.1183 -4331.934266 374802.9929
 292678.3036 -4311.644036 377217.0352
 288983.4975 -4177.117111 380056.5237
 284966.2844 -3899.800532 383080.7743
 281128.5574 -3411.995394 385910.5645
 278304.5533 -2506.942459 387958.9697
 300361.9592 -8519.817049 371055.2216
 299481.7852 -10988.68148 371701.1979
 298791.8487 -12037.34364 372223.5951
 297335.3381 -12541.18295 373371.5131
 295058.9508 -12750.83471 375165.9674
 292043.5208 -12676.9846 377520.5257
 288451.3731 -12253.0886 380286.1271
 284567.4771 -11392.23159 383227.6599
 280969.778 -10062.58458 385910.0926
 278687.4644 -6476.537526 387638.005
 0 0 0
 297571.416 -19393.14043 372890.1041
 297471.5064 -19574.64301 372960.3297
 295948.8811 -20097.37006 374141.9875
 293736.5652 -20391.1642 375865.5371
 290876.9627 -20234.90954 378091.2751
 287524.5175 -19473.76833 380686.6106
 283972.6631 -17795.12539 383425.001
 280693.1299 -16351.4821 385896.187
 0 0 0
 0 0 0
 296765.3356 -25450.36134 373168.1738
 296576.8703 -24686.24691 373369.2817
 294034.3916 -26120.99175 375277.6861
 291998.0409 -26608.81007 376830.1828
 289418.8872 -26306.25557 378835.7955
 286437.0745 -25248.71491 381166.8612
 283660.0936 -21687.99771 383455.9341
 280660.8382 -18690.06024 385813.4871
 0 0 0
 0 0 0
 0 0 0
 0 0 0
 291165.6411 -31100.97248 377130.1768
 290349.4442 -30690.8182 377792.4632
 288244.3301 -29952.86363 379460.0156
 285690.3629 -29145.3541 381449.1266
 0 0 0
 0 0 0
 0 0 0
 0 0 0
 0 0 0
 0 0 0
 283858.4387 27027.907 382969.6467
 283064.8754 26455.07734 383596.5022
 281073.2422 25545.07737 385119.6604
 278692.2628 24611.96074 386906.6365
 0 0 0
 0 0 0
 0 0 0
 0 0 0
 289393.477 22766.52645 379084.3864
 289069.533 21738.94987 379391.7427
 286479.6623 22769.59502 381290.9911
 284464.4755 23078.26342 382778.3004
 282005.2127 22638.97968 384619.8226
 279246.6732 21481.8591 386693.2848
 276778.5553 18019.32596 388639.6873
 274121.3872 14998.45178 390646.1094
 0 0 0
 0 0 0
 289963.4087 17232.50514 378940.805
 289743.7898 17275.62574 379106.7928
 288178.7159 17638.46026 380281.1903
 285998.5941 17828.27869 381914.6867
 283251.1685 17579.48828 383968.2388
 280103.1449 16725.6531 386308.6228
 276856.6505 14979.89773 388713.0934
 273938.1874 13460.45306 390830.5988
 0 0 0
 292895.4668 7553.147355 376997.436
 291758.1604 9692.280257 377829.4679
 290923.9267 10624.78776 378447.1615
 289434.1959 11057.84492 379575.3438
 287195.7632 11214.78438 381267.2206
 284283.7607 11088.35592 383447.0799
 280877.2634 10606.16829 385962.8783
 277293.1309 9692.475149 388569.7451
 274139.5828 8358.84645 390831.7926
 272371.5256 5083.36052 392122.1529
 292615.2011 2916.770546 377279.3498
 292346.709 3299.185443 377484.289
 291593.3328 3592.94339 378063.8707
 290112.3989 3759.208514 379199.8624
 287842.0478 3821.477626 380925.4824
 284855.4894 3784.241757 383164.3263
 281335.8861 3630.251506 385757.452
 277606.7092 3333.967049 388452.405
 274205.171 2840.402578 390864.8457
 271888.3636 1981.065289 392485.241
 292615.2011 -2916.770546 377279.3498
 292346.709 -3299.185443 377484.289
 291593.3328 -3592.94339 378063.8707
 290112.3989 -3759.208514 379199.8624
 287842.0478 -3821.477626 380925.4824
 284855.4894 -3784.241757 383164.3263
 281335.8861 -3630.251506 385757.452
 277606.7092 -3333.967049 388452.405
 274205.171 -2840.402578 390864.8457
 271888.3636 -1981.065289 392485.241
 292895.4668 -7553.147355 376997.436
 291758.1604 -9692.280257 377829.4679
 290923.9267 -10624.78776 378447.1615
 289434.1959 -11057.84492 379575.3438
 287195.7632 -11214.78438 381267.2206
 284283.7607 -11088.35592 383447.0799
 280877.2634 -10606.16829 385962.8783
 277293.1309 -9692.475149 388569.7451
 274139.5828 -8358.84645 390831.7926
 272371.5256 -5083.36052 392122.1529
 0 0 0
 289963.4087 -17232.50514 378940.805
 289743.7898 -17275.62574 379106.7928
 288178.7159 -17638.46026 380281.1903
 285998.5941 -17828.27869 381914.6867
 283251.1685 -17579.48828 383968.2388
 280103.1449 -16725.6531 386308.6228
 276856.6505 -14979.89773 388713.0934
 273938.1874 -13460.45306 390830.5988
 0 0 0
 0 0 0
 289393.477 -22766.52645 379084.3864
 289069.533 -21738.94987 379391.7427
 286479.6623 -22769.59502 381290.9911
 284464.4755 -23078.26342 382778.3004
 282005.2127 -22638.97968 384619.8226
 279246.6732 -21481.8591 386693.2848
 276778.5553 -18019.32596 388639.6873
 274121.3872 -14998.45178 390646.1094
 0 0 0
 0 0 0
 0 0 0
 0 0 0
 283858.4387 -27027.907 382969.6467
 283064.8754 -26455.07734 383596.5022
 281073.2422 -25545.07737 385119.6604
 278692.2628 -24611.96074 386906.6365
 0 0 0
 0 0 0
 0 0 0
 0 0 0
 0 0 0
 0 0 0
 275064.7587 23025.24248 389590.9239
 274294.4436 22304.06519 390175.5479
 272414.8869 21242.82587 391549.1579
 270190.4711 20214.61248 393141.6412
 0 0 0
 0 0 0
 0 0 0
 0 0 0
 280543.996 20088.8239 385828.17
 280085.2739 18840.49816 386224.2176
 277456.3003 19413.66159 388088.8848
 275463.0687 19484.17364 389502.6778
 273135.3059 18896.97222 391167.3305
 270613.5214 17689.53951 392972.3572
 268462.7974 14435.02336 394577.2774
 266121.1863 11502.01253 396256.3428
 0 0 0
 0 0 0
 280929.9365 15073.59131 385775.8791
 280559.4363 14946.95249 386050.3369
 278910.9928 15082.69354 387237.7071
 276749.7779 15107.82163 388784.2402
 274139.7537 14745.57131 390642.8482
 271249.4387 13831.97089 392688.5405
 268360.4326 12108.02477 394725.1515
 265794.9629 10612.10721 396500.0532
 0 0 0
 283987.7301 6659.693946 383768.7962
 282614.6978 8424.071393 384746.4606
 281574.5379 9171.292076 385491.2947
 279986.7071 9473.44603 386638.8095
 277766.5003 9535.852543 388235.3798
 274991.7431 9340.484584 390210.4149
 271847.5073 8815.590684 392419.5325
 268649.7304 7903.10507 394634.9384
 265965.0264 6661.294314 396472.0711
 264629.8252 3819.830707 397401.9826
 283641.6652 2571.190035 384073.7768
 283121.6531 2867.010542 384455.1744
 282154.0687 3099.89998 385164.0474
 280573.1623 3223.89006 386316.1638
 278321.0226 3255.515675 387941.5952
 275470.3919 3195.330794 389971.4404
 272212.2208 3026.219641 392254.025
 268875.8157 2728.629031 394550.6579
 265967.1008 2263.873965 396520.1729
 264093.8448 1492.743395 397773.9109
 283641.6652 -2571.190035 384073.7768
 283121.6531 -2867.010542 384455.1744
 282154.0687 -3099.89998 385164.0474
 280573.1623 -3223.89006 386316.1638
 278321.0226 -3255.515675 387941.5952
 275470.3919 -3195.330794 389971.4404
 272212.2208 -3026.219641 392254.025
 268875.8157 -2728.629031 394550.6579
 265967.1008 -2263.873965 396520.1729
 264093.8448 -1492.743395 397773.9109
 283987.7301 -6659.693946 383768.7962
 282614.6978 -8424.071393 384746.4606
 281574.5379 -9171.292076 385491.2947
 279986.7071 -9473.44603 386638.8095
 277766.5003 -9535.852543 388235.3798
 274991.7431 -9340.484584 390210.4149
 271847.5073 -8815.590684 392419.5325
 268649.7304 -7903.10507 394634.9384
 265965.0264 -6661.294314 396472.0711
 264629.8252 -3819.830707 397401.9826
 0 0 0
 280929.9365 -15073.59131 385775.8791
 280559.4363 -14946.95249 386050.3369
 278910.9928 -15082.69354 387237.7071
 276749.7779 -15107.82163 388784.2402
 274139.7537 -14745.57131 390642.8482
 271249.4387 -13831.97089 392688.5405
 268360.4326 -12108.02477 394725.1515
 265794.9629 -10612.10721 396500.0532
 0 0 0
 0 0 0
 280543.996 -20088.8239 385828.17
 280085.2739 -18840.49816 386224.2176
 277456.3003 -19413.66159 388088.8848
 275463.0687 -19484.17364 389502.6778
 273135.3059 -18896.97222 391167.3305
 270613.5214 -17689.53951 392972.3572
 268462.7974 -14435.02336 394577.2774
 266121.1863 -11502.01253 396256.3428
 0 0 0
 0 0 0
 0 0 0
 0 0 0
 275064.7587 -23025.24248 389590.9239
 274294.4436 -22304.06519 390175.5479
 272414.8869 -21242.82587 391549.1579
 270190.4711 -20214.61248 393141.6412
 0 0 0
 0 0 0
 0 0 0
 0 0 0
 0 0 0
 0 0 0
 265519.6348 19427.91607 396350.5404
 264784.6096 18589.89355 396882.0954
 263017.1445 17415.71441 398108.7112
 260935.4188 16326.64044 399522.2388
 0 0 0
 0 0 0
 0 0 0
 0 0 0
 270924.6512 17638.68725 392760.2085
 270368.9589 16218.20745 393204.1036
 267726.6089 16377.52166 395001.4063
 265771.9755 16224.4284 396325.4928
 263581.6188 15512.80261 397813.9697
 261288.2437 14292.85688 399369.5522
 259435.2795 11278.13614 400671.949
 257362.6693 8478.403198 402075.1726
 0 0 0
 0 0 0
 271180.5879 13107.03514 392760.9523
 270686.747 12823.55621 393110.8148
 268969.3654 12733.91192 394290.7547
 266838.5347 12590.09125 395740.5177
 264379.7861 12124.91827 397401.7946
 261756.0184 11185.319 399162.3063
 259212.1551 9533.802329 400861.6177
 256955.285 8110.001165 402343.2374
 0 0 0
 274331.1975 5867.902684 390742.6686
 272779.8059 7280.678055 391803.5739
 271557.4779 7838.317921 392641.017
 269873.4979 7997.202524 393797.1701
 267678.1688 7955.610355 395293.5333
 265061.0597 7694.614647 397058.3066
 262203.5085 7148.233251 398961.269
 259394.8228 6274.104815 400807.7255
 257129.9497 5163.129289 402280.2535
 256141.3011 2754.537657 402934.1357
 273944.0837 2263.979315 391051.6394
 273222.6761 2477.676246 391554.7237
 272053.5287 2645.927264 392366.8537
 270366.7381 2721.325366 393530.5485
 268137.1459 2717.966083 395053.1039
 265446.3469 2635.394895 396866.6815
 262482.5713 2458.236872 398834.2114
 259552.9338 2172.746858 400748.5808
 257097.1112 1752.918515 402330.5531
 255580.4688 1078.752194 403298.0679
 273944.0837 -2263.979315 391051.6394
 273222.6761 -2477.676246 391554.7237
 272053.5287 -2645.927264 392366.8537
 270366.7381 -2721.325366 393530.5485
 268137.1459 -2717.966083 395053.1039
 265446.3469 -2635.394895 396866.6815
 262482.5713 -2458.236872 398834.2114
 259552.9338 -2172.746858 400748.5808
 257097.1112 -1752.918515 402330.5531
 255580.4688 -1078.752194 403298.0679
 274331.1975 -5867.902684 390742.6686
 272779.8059 -7280.678055 391803.5739
 271557.4779 -7838.317921 392641.017
 269873.4979 -7997.202524 393797.1701
 267678.1688 -7955.610355 395293.5333
 265061.0597 -7694.614647 397058.3066
 262203.5085 -7148.233251 398961.269
 259394.8228 -6274.104815 400807.7255
 257129.9497 -5163.129289 402280.2535
 256141.3011 -2754.537657 402934.1357
 0 0 0
 271180.5879 -13107.03514 392760.9523
 270686.747 -12823.55621 393110.8148
 268969.3654 -12733.91192 394290.7547
 266838.5347 -12590.09125 395740.5177
 264379.7861 -12124.91827 397401.7946
 261756.0184 -11185.319 399162.3063
 259212.1551 -9533.802329 400861.6177
 256955.285 -8110.001165 402343.2374
 0 0 0
 0 0 0
 270924.6512 -17638.68725 392760.2085
 270368.9589 -16218.20745 393204.1036
 267726.6089 -16377.52166 395001.4063
 265771.9755 -16224.4284 396325.4928
 263581.6188 -15512.80261 397813.9697
 261288.2437 -14292.85688 399369.5522
 259435.2795 -11278.13614 400671.949
 257362.6693 -8478.403198 402075.1726
 0 0 0
 0 0 0
 0 0 0
 0 0 0
 265519.6348 -19427.91607 396350.5404
 264784.6096 -18589.89355 396882.0954
 263017.1445 -17415.71441 398108.7112
 260935.4188 -16326.64044 399522.2388
 0 0 0
 0 0 0
 0 0 0
 0 0 0
 0 0 0
 0 0 0
 255751.8935 16338.82701 402859.6319
 255064.8033 15418.67171 403331.2311
 253412.0018 14170.73474 404417.3821
 251464.6016 13049.94302 405668.7373
 0 0 0
 0 0 0
 0 0 0
 0 0 0
 261047.9271 15490.67158 399482.0273
 260435.9299 13946.28003 399938.119
 257813.2412 13765.45058 401640.0332
 255918.8841 13430.05631 402861.055
 253870.7273 12627.7564 404180.7329
 251792.0906 11420.68265 405514.713
 250209.9415 8642.821971 406561.383
 248365.5791 5988.201306 407738.3375
 0 0 0
 0 0 0
 261214.352 11393.20616 399511.1118
 260639.6701 10982.36328 399897.7636
 258890.5458 10701.48704 401039.9416
 256813.7883 10413.72996 402380.5458
 254514.5849 9869.378793 403852.4393
 252146.15 8928.523681 405357.215
 249913.4673 7369.506051 406768.7556
 247918.5655 6033.222156 408009.6278
 0 0 0
 264416.8869 5182.156844 397528.2713
 262747.4908 6290.648008 398617.6804
 261397.7489 6681.675689 399497.7389
 259654.6666 6712.388614 400632.3368
 257507.6037 6578.4442 402017.9466
 255059.7881 6265.183115 403580.3802
 252482.8542 5714.161452 405205.6613
 250029.1113 4894.625199 406734.9966
 248119.638 3917.405212 407913.1899
 247407.6888 1892.337755 408359.7995
 264004.4106 1998.094631 397831.0572
 263142.9199 2141.034823 398400.6664
 261826.729 2251.590235 399266.2841
 260069.2324 2282.392425 400413.1071
 257885.031 2247.254072 401823.5084
 255367.7384 2146.530266 403428.5338
 252696.0125 1967.215683 405108.29
 250141.5226 1700.045399 406691.775
 248071.8397 1327.648649 407958.9085
 246837.9268 743.2295608 408708.156
 264004.4106 -1998.094631 397831.0572
 263142.9199 -2141.034823 398400.6664
 261826.729 -2251.590235 399266.2841
 260069.2324 -2282.392425 400413.1071
 257885.031 -2247.254072 401823.5084
 255367.7384 -2146.530266 403428.5338
 252696.0125 -1967.215683 405108.29
 250141.5226 -1700.045399 406691.775
 248071.8397 -1327.648649 407958.9085
 246837.9268 -743.2295608 408708.156
 264416.8869 -5182.156844 397528.2713
 262747.4908 -6290.648008 398617.6804
 261397.7489 -6681.675689 399497.7389
 259654.6666 -6712.388614 400632.3368
 257507.6037 -6578.4442 402017.9466
 255059.7881 -6265.183115 403580.3802
 252482.8542 -5714.161452 405205.6613
 250029.1113 -4894.625199 406734.9966
 248119.638 -3917.405212 407913.1899
 247407.6888 -1892.337755 408359.7995
 0 0 0
 261214.352 -11393.20616 399511.1118
 260639.6701 -10982.36328 399897.7636
 258890.5458 -10701.48704 401039.9416
 256813.7883 -10413.72996 402380.5458
 254514.5849 -9869.378793 403852.4393
 252146.15 -8928.523681 405357.215
 249913.4673 -7369.506051 406768.7556
 247918.5655 -6033.222156 408009.6278
 0 0 0
 0 0 0
 261047.9271 -15490.67158 399482.0273
 260435.9299 -13946.28003 399938.119
 257813.2412 -13765.45058 401640.0332
 255918.8841 -13430.05631 402861.055
 253870.7273 -12627.7564 404180.7329
 251792.0906 -11420.68265 405514.713
 250209.9415 -8642.821971 406561.383
 248365.5791 -5988.201306 407738.3375
 0 0 0
 0 0 0
 0 0 0
 0 0 0
 255751.8935 -16338.82701 402859.6319
 255064.8033 -15418.67171 403331.2311
 253412.0018 -14170.73474 404417.3821
 251464.6016 -13049.94302 405668.7373
 0 0 0
 0 0 0
 0 0 0
 0 0 0
 0 0 0
 0 0 0
 246133.8199 13754.15852 408901.9897
 245505.4063 12782.43683 409311.0994
 243970.3376 11493.79726 410266.0579
 242151.762 10363.4327 411372.0879
 0 0 0
 0 0 0
 0 0 0
 0 0 0
 251280.5047 13651.56933 405763.0022
 250647.2157 12025.4714 406205.8993
 248076.7953 11579.70399 407793.6799
 246263.529 11106.84916 408904.3696
 244361.3254 10245.72915 410066.3836
 242483.4723 9067.377788 411207.2709
 241145.466 6508.787134 412041.7105
 239496.9988 3995.818199 413034.0087
 0 0 0
 0 0 0
 251385.048 9935.007436 405806.2648
 250770.3406 9428.350311 406198.4906
 249030.0458 8998.513948 407277.466
 247032.78 8600.043548 408500.5706
 244897.9619 8001.559093 409796.089
 242767.3224 7075.415004 411078.8695
 240809.201 5612.151278 412251.5055
 239036.4413 4362.957725 413297.0066
 0 0 0
 254597.4823 4596.648382 403894.6201
 252863.3786 5452.33011 404971.919
 251444.1181 5707.016183 405851.1509
 249688.1347 5634.177839 406934.8384
 247617.0109 5427.322409 408201.2144
 245344.5572 5077.254457 409575.5621
 243029.8897 4532.695901 410959.6071
 240887.9933 3771.030044 412226.4248
 239274.9881 2914.697498 413171.7027
 238786.036 1211.621281 413462.9757
 254169.9399 1771.310264 404186.0653
 253223.6739 1856.295118 404779.1947
 251822.4179 1919.422909 405652.1379
 250042.2124 1913.636353 406751.8916
 247931.9227 1853.030355 408041.9087
 245595.0347 1739.32758 409453.2024
 243197.2746 1561.792789 410882.6082
 240972.8391 1314.358729 412191.9875
 239224.7621 985.4809145 413209.8902
 238216.6798 478.2745994 413792.7694
 254169.9399 -1771.310264 404186.0653
 253223.6739 -1856.295118 404779.1947
 251822.4179 -1919.422909 405652.1379
 250042.2124 -1913.636353 406751.8916
 247931.9227 -1853.030355 408041.9087
 245595.0347 -1739.32758 409453.2024
 243197.2746 -1561.792789 410882.6082
 240972.8391 -1314.358729 412191.9875
 239224.7621 -985.4809145 413209.8902
 238216.6798 -478.2745994 413792.7694
 254597.4823 -4596.648382 403894.6201
 252863.3786 -5452.33011 404971.919
 251444.1181 -5707.016183 405851.1509
 249688.1347 -5634.177839 406934.8384
 247617.0109 -5427.322409 408201.2144
 245344.5572 -5077.254457 409575.5621
 243029.8897 -4532.695901 410959.6071
 240887.9933 -3771.030044 412226.4248
 239274.9881 -2914.697498 413171.7027
 238786.036 -1211.621281 413462.9757
 0 0 0
 251385.048 -9935.007436 405806.2648
 250770.3406 -9428.350311 406198.4906
 249030.0458 -8998.513948 407277.466
 247032.78 -8600.043548 408500.5706
 244897.9619 -8001.559093 409796.089
 242767.3224 -7075.415004 411078.8695
 240809.201 -5612.151278 412251.5055
 239036.4413 -4362.957725 413297.0066
 0 0 0
 0 0 0
 251280.5047 -13651.56933 405763.0022
 250647.2157 -12025.4714 406205.8993
 248076.7953 -11579.70399 407793.6799
 246263.529 -11106.84916 408904.3696
 244361.3254 -10245.72915 410066.3836
 242483.4723 -9067.377788 411207.2709
 241145.466 -6508.787134 412041.7105
 239496.9988 -3995.818199 413034.0087
 0 0 0
 0 0 0
 0 0 0
 0 0 0
 246133.8199 -13754.15852 408901.9897
 245505.4063 -12782.43683 409311.0994
 243970.3376 -11493.79726 410266.0579
 242151.762 -10363.4327 411372.0879
 0 0 0
 0 0 0
 0 0 0
 0 0 0
 0 0 0
 0 0 0
 236917.5693 11623.42691 414375.2316
 236355.805 10624.11641 414722.7181
 234940.3985 9319.874128 415557.4814
 233245.9927 8195.520018 416534.5264
 0 0 0
 0 0 0
 0 0 0
 0 0 0
 241876.9512 12097.56187 411486.4041
 241249.9413 10423.52767 411900.0937
 238759.5954 9778.579081 413364.3747
 237044.3484 9207.497864 414363.4518
 235290.0581 8313.234561 415380.9697
 233599.8807 7172.579003 416355.0422
 232481.7992 4810.380986 417014.3218
 231003.6838 2429.179132 417855.5593
 0 0 0
 0 0 0
 241937.5651 8710.487235 411536.4058
 241316.4095 8135.638322 411912.7009
 239620.1047 7595.943002 412912.071
 237723.8948 7117.88072 414015.1651
 235755.4317 6486.491197 415149.5793
 233844.4538 5584.466604 416242.0647
 232128.0468 4212.321012 417217.8059
 230545.4041 3043.481133 418104.5625
 0 0 0
 245121.6747 4100.863237 409719.9273
 243366.106 4751.08481 410758.1246
 241927.0756 4898.336954 411605.5972
 240200.1889 4746.62232 412617.5107
 238229.4407 4486.346958 413761.3776
 236134.4598 4113.101964 414964.4209
 234060.94 3581.587432 416142.4274
 232190.5394 2874.881469 417194.3909
 230825.6722 2121.959333 417955.5929
 230518.8046 682.1269683 418129.7487
 244685.8808 1579.452782 409997.8005
 243699.3973 1618.290925 410584.7735
 242267.6427 1644.106497 411431.1091
 240509.7024 1610.136233 412461.3458
 238499.0976 1530.659176 413627.5001
 236344.8825 1408.642067 414862.608
 234198.7349 1235.222341 416078.4759
 232260.6924 1006.582893 417164.0311
 230780.3855 715.2255488 417985.3746
 229955.4001 272.2162712 418440.3317
 244685.8808 -1579.452782 409997.8005
 243699.3973 -1618.290925 410584.7735
 242267.6427 -1644.106497 411431.1091
 240509.7024 -1610.136233 412461.3458
 238499.0976 -1530.659176 413627.5001
 236344.8825 -1408.642067 414862.608
 234198.7349 -1235.222341 416078.4759
 232260.6924 -1006.582893 417164.0311
 230780.3855 -715.2255488 417985.3746
 229955.4001 -272.2162712 418440.3317
 245121.6747 -4100.863237 409719.9273
 243366.106 -4751.08481 410758.1246
 241927.0756 -4898.336954 411605.5972
 240200.1889 -4746.62232 412617.5107
 238229.4407 -4486.346958 413761.3776
 236134.4598 -4113.101964 414964.4209
 234060.94 -3581.587432 416142.4274
 232190.5394 -2874.881469 417194.3909
 230825.6722 -2121.959333 417955.5929
 230518.8046 -682.1269683 418129.7487
 0 0 0
 241937.5651 -8710.487235 411536.4058
 241316.4095 -8135.638322 411912.7009
 239620.1047 -7595.943002 412912.071
 237723.8948 -7117.88072 414015.1651
 235755.4317 -6486.491197 415149.5793
 233844.4538 -5584.466604 416242.0647
 232128.0468 -4212.321012 417217.8059
 230545.4041 -3043.481133 418104.5625
 0 0 0
 0 0 0
 241876.9512 -12097.56187 411486.4041
 241249.9413 -10423.52767 411900.0937
 238759.5954 -9778.579081 413364.3747
 237044.3484 -9207.497864 414363.4518
 235290.0581 -8313.234561 415380.9697
 233599.8807 -7172.579003 416355.0422
 232481.7992 -4810.380986 417014.3218
 231003.6838 -2429.179132 417855.5593
 0 0 0
 0 0 0
 0 0 0
 0 0 0
 236917.5693 -11623.42691 414375.2316
 236355.805 -10624.11641 414722.7181
 234940.3985 -9319.874128 415557.4814
 233245.9927 -8195.520018 416534.5264
 0 0 0
 0 0 0
 0 0 0
 0 0 0
 0 0 0
 0 0 0
 228263.9295 9880.303753 419249.1257
 227773.8196 8870.868937 419538.1581
 226478.0596 7568.719488 420264.529
 224902.9184 6460.583502 421128.0203
 0 0 0
 0 0 0
 0 0 0
 0 0 0
 233005.2878 10793.11636 416610.0284
 232404.9145 9096.464605 416985.7088
 230015.8062 8305.655534 418324.7737
 228410.4814 7667.525282 419215.6156
 226803.7465 6759.088592 420102.662
 225288.8744 5660.339192 420933.1953
 224369.1472 3470.86262 421447.8736
 223040.7648 1209.259193 422164.9278
 0 0 0
 0 0 0
 233033.2595 7688.762252 416663.2384
 232430.9367 7067.714837 417010.5255
 230805.4429 6450.262078 417922.3767
 229025.8851 5918.034222 418908.0951
 227222.9866 5269.892764 419897.385
 225514.6418 4396.895015 420827.3814
 224012.0432 3108.057441 421640.624
 222593.9861 2010.939964 422397.6145
 0 0 0
 236157.4073 3682.705767 414955.4047
 234413.3615 4167.863522 415938.5485
 232992.9722 4232.200661 416735.2093
 231328.0135 4022.627965 417663.7882
 229475.7721 3725.350742 418687.0706
 227557.1588 3339.524963 419736.1771
 225704.5374 2824.543843 420739.0582
 224071.2601 2167.536784 421615.0418
 222916.2624 1500.892773 422229.7462
 222760.131 273.5800594 422314.7173
 235717.8073 1417.757425 415219.191
 234724.6635 1420.431711 415781.4161
 233304.9657 1417.601419 416579.7099
 231604.9753 1362.751684 417527.4238
 229713.4498 1270.061238 418571.3669
 227740.6692 1143.39945 419648.3665
 225824.3208 975.3376872 420683.1304
 224135.1652 763.6458674 421585.9531
 222879.9295 503.7385662 422251.2932
 222205.8917 113.2749688 422606.6731
 235717.8073 -1417.757425 415219.191
 234724.6635 -1420.431711 415781.4161
 233304.9657 -1417.601419 416579.7099
 231604.9753 -1362.751684 417527.4238
 229713.4498 -1270.061238 418571.3669
 227740.6692 -1143.39945 419648.3665
 225824.3208 -975.3376872 420683.1304
 224135.1652 -763.6458674 421585.9531
 222879.9295 -503.7385662 422251.2932
 222205.8917 -113.2749688 422606.6731
 236157.4073 -3682.705767 414955.4047
 234413.3615 -4167.863522 415938.5485
 232992.9722 -4232.200661 416735.2093
 231328.0135 -4022.627965 417663.7882
 229475.7721 -3725.350742 418687.0706
 227557.1588 -3339.524963 419736.1771
 225704.5374 -2824.543843 420739.0582
 224071.2601 -2167.536784 421615.0418
 222916.2624 -1500.892773 422229.7462
 222760.131 -273.5800594 422314.7173
 0 0 0
 233033.2595 -7688.762252 416663.2384
 232430.9367 -7067.714837 417010.5255
 230805.4429 -6450.262078 417922.3767
 229025.8851 -5918.034222 418908.0951
 227222.9866 -5269.892764 419897.385
 225514.6418 -4396.895015 420827.3814
 224012.0432 -3108.057441 421640.624
 222593.9861 -2010.939964 422397.6145
 0 0 0
 0 0 0
 233005.2878 -10793.11636 416610.0284
 232404.9145 -9096.464605 416985.7088
 230015.8062 -8305.655534 418324.7737
 228410.4814 -7667.525282 419215.6156
 226803.7465 -6759.088592 420102.662
 225288.8744 -5660.339192 420933.1953
 224369.1472 -3470.86262 421447.8736
 223040.7648 -1209.259193 422164.9278
 0 0 0
 0 0 0
 0 0 0
 0 0 0
 228263.9295 -9880.303753 419249.1257
 227773.8196 -8870.868937 419538.1581
 226478.0596 -7568.719488 420264.529
 224902.9184 -6460.583502 421128.0203
 0 0 0
 0 0 0
 0 0 0
 0 0 0
 0 0 0
 0 0 0
 220265.3701 8458.117809 423536.8913
 219849.1616 7450.55963 423771.9984
 218670.9042 6162.18053 424401.8549
 217209.407 5076.386449 425166.0559
 0 0 0
 0 0 0
 0 0 0
 0 0 0
 224767.324 9700.661539 421138.2416
 224207.6611 7999.383221 421472.1887
 221934.0641 7104.06571 422689.8091
 220445.5294 6422.346605 423478.9172
 218983.5608 5512.916342 424249.5482
 217632.0029 4457.124071 424956.8409
 216891.3116 2418.00445 425351.835
 215695.4898 263.4638417 425966.2634
 0 0 0
 0 0 0
 224769.6183 6837.916038 421193.2251
 224203.8362 6187.230576 421504.7204
 222667.5331 5516.745395 422327.6057
 221014.07 4949.688406 423202.2598
 219373.3156 4296.279595 424062.2144
 217851.7991 3454.253602 424853.543
 216539.3942 2240.035516 425532.072
 215265.2406 1205.971474 426182.2299
 0 0 0
 227809.7799 3330.299867 419599.1951
 226101.0189 3683.492536 420519.4792
 224726.6925 3684.532991 421255.5153
 223146.6588 3433.661573 422096.7305
 221424.263 3112.066956 423005.298
 219678.1262 2721.302691 423917.4291