# OOMMF OVF 2.0
#
# Segment count: 1
#
# Begin: Segment
# Begin: Header
#
# Title: Oxs_MinDriver::Magnetization
# Desc: Oxs vector field output
# Desc:  MIF source file: F:/Bogdan/UNIC/2022/Master_degree/Simulation_samples/Cylinder0_5000.mif
# Desc:  Iteration: 418, State id: 11966
# Desc:  Stage: 0, Stage iteration: 295
# Desc:  Stage simulation time: 0 s
# Desc:  Total simulation time: -2 s
# meshunit: m
# meshtype: rectangular
# xbase: -8.9999999999999995e-09
# ybase: -8.9999999999999995e-09
# zbase: -8.6999999999999998e-08
# xnodes: 10
# ynodes: 10
# znodes: 88
# xstepsize: 2.0000000000000001e-09
# ystepsize: 2.0000000000000001e-09
# zstepsize: 2.0000000000000001e-09
# xmin: -1e-08
# ymin: -1e-08
# zmin: -8.7999999999999994e-08
# xmax: 1e-08
# ymax: 1e-08
# zmax: 8.800000000000002e-08
# valuedim: 3
# valuelabels: Magnetization_x Magnetization_y Magnetization_z
# valueunits: A/m A/m A/m
#
# End: Header
#
# Begin: Data Text
 0 0 0
 0 0 0
 0 0 0
 10120.35958 38919.54268 475767.505
 3834.297922 39206.06968 475836.1625
 -3834.236299 39206.07031 475836.163
 -10120.29662 38919.54167 475767.5064
 0 0 0
 0 0 0
 0 0 0
 0 0 0
 28857.29167 28857.26149 475716.7082
 23050.88871 30147.26017 475953.4332
 13614.12499 32907.80851 476134.0179
 4608.101475 33711.51632 476250.1132
 -4608.041592 33711.51596 476250.1138
 -13614.06545 32907.80641 476134.0198
 -23050.82662 30147.25433 475953.4365
 -28857.22744 28857.25514 475716.7125
 0 0 0
 0 0 0
 30147.28981 23050.85931 475953.4327
 23911.11486 23911.08658 476265.0416
 14888.63561 25078.56766 476572.4135
 5047.28463 25620.78755 476749.3801
 -5047.225359 25620.78614 476749.3808
 -14888.57754 25078.5638 476572.4155
 -23911.05483 23911.08107 476265.0449
 -30147.22743 23050.85374 475953.4369
 0 0 0
 38919.57521 10120.32642 475767.503
 32907.83964 13614.09502 476134.0166
 25078.59595 14888.60769 476572.4128
 15612.8557 15612.82987 476953.1943
 5293.926407 15944.82314 477168.3228
 -5293.872211 15944.82181 477168.3234
 -15612.80193 15612.82683 476953.1962
 -25078.53743 14888.60409 476572.416
 -32907.7781 13614.09381 476134.0209
 -38919.51312 10120.32784 475767.5081
 39206.10398 3834.266385 475836.1599
 33711.5485 4608.071114 476250.1113
 25620.81611 5047.25488 476749.3789
 15944.84842 5293.899528 477168.3222
 5406.520998 5406.495957 477402.7761
 -5406.470715 5406.495671 477402.7767
 -15944.79706 5293.899054 477168.3239
 -25620.75944 5047.254518 476749.382
 -33711.48687 4608.071353 476250.1156
 -39206.04031 3834.267329 475836.1652
 39206.10398 -3834.266385 475836.1599
 33711.5485 -4608.071114 476250.1113
 25620.81611 -5047.25488 476749.3789
 15944.84842 -5293.899528 477168.3222
 5406.520998 -5406.495957 477402.7761
 -5406.470715 -5406.495671 477402.7767
 -15944.79706 -5293.899054 477168.3239
 -25620.75944 -5047.254518 476749.382
 -33711.48687 -4608.071353 476250.1156
 -39206.04031 -3834.267329 475836.1652
 38919.57521 -10120.32642 475767.503
 32907.83964 -13614.09502 476134.0166
 25078.59595 -14888.60769 476572.4128
 15612.8557 -15612.82987 476953.1943
 5293.926407 -15944.82314 477168.3228
 -5293.872211 -15944.82181 477168.3234
 -15612.80193 -15612.82683 476953.1962
 -25078.53743 -14888.60409 476572.416
 -32907.7781 -13614.09381 476134.0209
 -38919.51312 -10120.32784 475767.5081
 0 0 0
 30147.28981 -23050.85931 475953.4327
 23911.11486 -23911.08658 476265.0416
 14888.63561 -25078.56766 476572.4135
 5047.28463 -25620.78755 476749.3801
 -5047.225359 -25620.78614 476749.3808
 -14888.57754 -25078.5638 476572.4155
 -23911.05483 -23911.08107 476265.0449
 -30147.22743 -23050.85374 475953.4369
 0 0 0
 0 0 0
 28857.29167 -28857.26149 475716.7082
 23050.88871 -30147.26017 475953.4332
 13614.12499 -32907.80851 476134.0179
 4608.101475 -33711.51632 476250.1132
 -4608.041592 -33711.51596 476250.1138
 -13614.06545 -32907.80641 476134.0198
 -23050.82662 -30147.25433 475953.4365
 -28857.22744 -28857.25514 475716.7125
 0 0 0
 0 0 0
 0 0 0
 0 0 0
 10120.35958 -38919.54268 475767.505
 3834.297922 -39206.06968 475836.1625
 -3834.236299 -39206.07031 475836.163
 -10120.29662 -38919.54167 475767.5064
 0 0 0
 0 0 0
 0 0 0
 0 0 0
 0 0 0
 0 0 0
 8644.194755 34165.3524 476161.609
 3335.870823 34425.30812 476209.6612
 -3335.813203 34425.30893 476209.6615
 -8644.135729 34165.35177 476161.6101
 0 0 0
 0 0 0
 0 0 0
 0 0 0
 25296.39479 25296.36698 476121.8936
 20422.43058 26499.99065 476290.401
 12032.90918 29232.8441 476416.3318
 4093.058755 30098.84277 476496.7763
 -4093.002292 30098.84238 476496.7768
 -12032.85329 29232.8425 476416.3333
 -20422.3728 26499.98559 476290.4038
 -25296.33507 25296.36186 476121.897
 0 0 0
 0 0 0
 26500.01771 20422.40349 476290.4007
 21347.14686 21347.12068 476508.6264
 13384.66944 22567.46512 476742.5211
 4553.504223 23154.07967 476880.5149
 -4553.447918 23154.0788 476880.5155
 -13384.61457 22567.46186 476742.5228
 -21347.09085 21347.11636 476508.6291
 -26499.95962 20422.39871 476290.4041
 0 0 0
 34165.3816 8644.163612 476161.6075
 29232.8724 12032.88117 476416.3308
 22567.49119 13384.64321 476742.5206
 14155.20343 14155.17889 477044.1619
 4815.780653 14510.98415 477219.1435
 -4815.727979 14510.98277 477219.144
 -14155.15206 14155.17673 477044.1635
 -22567.4363 13384.64021 476742.5233
 -29232.81529 12032.88044 476416.3343
 -34165.32461 8644.165391 476161.6115
 34425.33902 3335.841243 476209.6592
 30098.87182 4093.030184 476496.7747
 23154.10588 4553.475908 476880.5139
 14511.00807 4815.754695 477219.143
 4935.855293 4935.830463 477412.9724
 -4935.805448 4935.830563 477412.9729
 -14510.95837 4815.754137 477219.1445
 -23154.05283 4553.476044 476880.5165
 -30098.81468 4093.030384 476496.7783
 -34425.28025 3335.842384 476209.6634
 34425.33902 -3335.841243 476209.6592
 30098.87182 -4093.030184 476496.7747
 23154.10588 -4553.475908 476880.5139
 14511.00807 -4815.754695 477219.143
 4935.855293 -4935.830463 477412.9724
 -4935.805448 -4935.830563 477412.9729
 -14510.95837 -4815.754137 477219.1445
 -23154.05283 -4553.476044 476880.5165
 -30098.81468 -4093.030384 476496.7783
 -34425.28025 -3335.842384 476209.6634
 34165.3816 -8644.163612 476161.6075
 29232.8724 -12032.88117 476416.3308
 22567.49119 -13384.64321 476742.5206
 14155.20343 -14155.17889 477044.1619
 4815.780653 -14510.98415 477219.1435
 -4815.727979 -14510.98277 477219.144
 -14155.15206 -14155.17673 477044.1635
 -22567.4363 -13384.64021 476742.5233
 -29232.81529 -12032.88044 476416.3343
 -34165.32461 -8644.165391 476161.6115
 0 0 0
 26500.01771 -20422.40349 476290.4007
 21347.14686 -21347.12068 476508.6264
 13384.66944 -22567.46512 476742.5211
 4553.504223 -23154.07967 476880.5149
 -4553.447918 -23154.0788 476880.5155
 -13384.61457 -22567.46186 476742.5228
 -21347.09085 -21347.11636 476508.6291
 -26499.95962 -20422.39871 476290.4041
 0 0 0
 0 0 0
 25296.39479 -25296.36698 476121.8936
 20422.43058 -26499.99065 476290.401
 12032.90918 -29232.8441 476416.3318
 4093.058755 -30098.84277 476496.7763
 -4093.002292 -30098.84238 476496.7768
 -12032.85329 -29232.8425 476416.3333
 -20422.3728 -26499.98559 476290.4038
 -25296.33507 -25296.36186 476121.897
 0 0 0
 0 0 0
 0 0 0
 0 0 0
 8644.194755 -34165.3524 476161.609
 3335.870823 -34425.30812 476209.6612
 -3335.813203 -34425.30893 476209.6615
 -8644.135729 -34165.35177 476161.6101
 0 0 0
 0 0 0
 0 0 0
 0 0 0
 0 0 0
 0 0 0
 7045.566874 28314.23575 476571.6476
 2732.56174 28532.28947 476602.888
 -2732.509295 28532.29029 476602.8883
 -7045.513156 28314.23569 476571.6484
 0 0 0
 0 0 0
 0 0 0
 0 0 0
 20958.54076 20958.51633 476543.1265
 16987.71686 21983.97139 476655.005
 9992.122233 24362.7502 476737.3335
 3403.977669 25157.99716 476788.5898
 -3403.925835 25157.99752 476788.5902
 -9992.071111 24362.74918 476737.3347
 -16987.66466 21983.96795 476655.007
 -20958.48723 20958.51289 476543.1291
 0 0 0
 0 0 0
 21983.99489 16987.69274 476655.0048
 17843.16155 17843.13834 476796.7232
 11244.39913 18977.5283 476954.1783
 3836.221646 19542.01742 477048.4926
 -3836.168676 19542.01643 477048.493
 -11244.3483 18977.52668 476954.1796
 -17843.11067 17843.13522 476796.7253
 -21983.94299 16987.68958 476655.0073
 0 0 0
 28314.26023 7045.538424 476571.6466
 24362.77438 9992.096841 476737.3328
 18977.55161 11244.37484 476954.178
 11984.18844 11984.16563 477163.1066
 4091.163822 12333.7041 477287.1394
 -4091.112611 12333.70385 477287.1398
 -11984.13954 11984.16382 477163.1079
 -18977.50146 11244.37347 476954.18
 -24362.72333 9992.096643 476737.3355
 -28314.21011 7045.540743 476571.6496
 28532.31522 2732.534827 476602.8866
 25158.02197 3403.951312 476788.5887
 19542.04027 3836.195242 477048.4918
 12333.72696 4091.138361 477287.139
 4210.073617 4210.049341 477426.8761
 -4210.023802 4210.04882 477426.8766
 -12333.679 4091.138881 477287.1402
 -19541.99153 3836.195219 477048.4938
 -25157.97104 3403.952217 476788.5914
 -28532.26352 2732.536002 476602.8897
 28532.31522 -2732.534827 476602.8866
 25158.02197 -3403.951312 476788.5887
 19542.04027 -3836.195242 477048.4918
 12333.72696 -4091.138361 477287.139
 4210.073617 -4210.049341 477426.8761
 -4210.023802 -4210.04882 477426.8766
 -12333.679 -4091.138881 477287.1402
 -19541.99153 -3836.195219 477048.4938
 -25157.97104 -3403.952217 476788.5914
 -28532.26352 -2732.536002 476602.8897
 28314.26023 -7045.538424 476571.6466
 24362.77438 -9992.096841 476737.3328
 18977.55161 -11244.37484 476954.178
 11984.18844 -11984.16563 477163.1066
 4091.163822 -12333.7041 477287.1394
 -4091.112611 -12333.70385 477287.1398
 -11984.13954 -11984.16382 477163.1079
 -18977.50146 -11244.37347 476954.18
 -24362.72333 -9992.096643 476737.3355
 -28314.21011 -7045.540743 476571.6496
 0 0 0
 21983.99489 -16987.69274 476655.0048
 17843.16155 -17843.13834 476796.7232
 11244.39913 -18977.5283 476954.1783
 3836.221646 -19542.01742 477048.4926
 -3836.168676 -19542.01643 477048.493
 -11244.3483 -18977.52668 476954.1796
 -17843.11067 -17843.13522 476796.7253
 -21983.94299 -16987.68958 476655.0073
 0 0 0
 0 0 0
 20958.54076 -20958.51633 476543.1265
 16987.71686 -21983.97139 476655.005
 9992.122233 -24362.7502 476737.3335
 3403.977669 -25157.99716 476788.5898
 -3403.925835 -25157.99752 476788.5902
 -9992.071111 -24362.74918 476737.3347
 -16987.66466 -21983.96795 476655.007
 -20958.48723 -20958.51289 476543.1291
 0 0 0
 0 0 0
 0 0 0
 0 0 0
 7045.566874 -28314.23575 476571.6476
 2732.56174 -28532.28947 476602.888
 -2732.509295 -28532.29029 476602.8883
 -7045.513156 -28314.23569 476571.6484
 0 0 0
 0 0 0
 0 0 0
 0 0 0
 0 0 0
 0 0 0
 5594.06439 22703.56579 476891.1048
 2171.889696 22875.18753 476910.7673
 -2171.843347 22875.18873 476910.7675
 -5594.016674 22703.56622 476891.1053
 0 0 0
 0 0 0
 0 0 0
 0 0 0
 16807.13193 16807.11112 476872.0086
 13634.2345 17629.05515 476943.5977
 8006.770414 19569.18216 476995.608
 2727.685087 20232.21776 477027.3455
 -2727.63851 20232.2177 477027.3458
 -8006.724985 19569.18254 476995.6087
 -13634.18873 17629.05334 476943.599
 -16807.08544 16807.10976 476872.0103
 0 0 0
 0 0 0
 17629.07483 13634.21375 476943.5975
 14348.77045 14348.75022 477032.5958
 9063.238302 15307.96728 477132.4713
 3096.548739 15795.379 477192.6117
 -3096.500172 15795.37924 477192.612
 -9063.19214 15307.96588 477132.4722
 -14348.72575 14348.7494 477032.5972
 -17629.02984 13634.21218 476943.5992
 0 0 0
 22703.58515 5594.039075 476891.1042
 19569.20214 8006.747777 476995.6075
 15307.98713 9063.216777 477132.471
 9704.470911 9704.44948 477266.716
 3320.187739 10013.34608 477347.4422
 -3320.139344 10013.34461 477347.4425
 -9704.425162 9704.449255 477266.7169
 -15307.94225 9063.21561 477132.4725
 -19569.1582 8006.748929 476995.6093
 -22703.54264 5594.041791 476891.1062
 22875.20786 2171.865773 476910.7665
 20232.23747 2727.661694 477027.3448
 15795.399 3096.524189 477192.6112
 10013.36666 3320.164373 477347.4419
 3426.427566 3426.403468 477439.4104
 -3426.379395 3426.404443 477439.4108
 -10013.32114 3320.16364 477347.4429
 -15795.35519 3096.525343 477192.6127
 -20232.19361 2727.662142 477027.3467
 -22875.16408 2171.867313 476910.7685
 22875.20786 -2171.865773 476910.7665
 20232.23747 -2727.661694 477027.3448
 15795.399 -3096.524189 477192.6112
 10013.36666 -3320.164373 477347.4419
 3426.427566 -3426.403468 477439.4104
 -3426.379395 -3426.404443 477439.4108
 -10013.32114 -3320.16364 477347.4429
 -15795.35519 -3096.525343 477192.6127
 -20232.19361 -2727.662142 477027.3467
 -22875.16408 -2171.867313 476910.7685
 22703.58515 -5594.039075 476891.1042
 19569.20214 -8006.747777 476995.6075
 15307.98713 -9063.216777 477132.471
 9704.470911 -9704.44948 477266.716
 3320.187739 -10013.34608 477347.4422
 -3320.139344 -10013.34461 477347.4425
 -9704.425162 -9704.449255 477266.7169
 -15307.94225 -9063.21561 477132.4725
 -19569.1582 -8006.748929 476995.6093
 -22703.54264 -5594.041791 476891.1062
 0 0 0
 17629.07483 -13634.21375 476943.5975
 14348.77045 -14348.75022 477032.5958
 9063.238302 -15307.96728 477132.4713
 3096.548739 -15795.379 477192.6117
 -3096.500172 -15795.37924 477192.612
 -9063.19214 -15307.96588 477132.4722
 -14348.72575 -14348.7494 477032.5972
 -17629.02984 -13634.21218 476943.5992
 0 0 0
 0 0 0
 16807.13193 -16807.11112 476872.0086
 13634.2345 -17629.05515 476943.5977
 8006.770414 -19569.18216 476995.608
 2727.685087 -20232.21776 477027.3455
 -2727.63851 -20232.2177 477027.3458
 -8006.724985 -19569.18254 476995.6087
 -13634.18873 -17629.05334 476943.599
 -16807.08544 -16807.10976 476872.0103
 0 0 0
 0 0 0
 0 0 0
 0 0 0
 5594.06439 -22703.56579 476891.1048
 2171.889696 -22875.18753 476910.7673
 -2171.843347 -22875.18873 476910.7675
 -5594.016674 -22703.56622 476891.1053
 0 0 0
 0 0 0
 0 0 0
 0 0 0
 0 0 0
 0 0 0
 4366.67361 17832.48304 477110.8949
 1695.554362 17962.10078 477123.0023
 -1695.513823 17962.10201 477123.0024
 -4366.631969 17832.48419 477110.8952
 0 0 0
 0 0 0
 0 0 0
 0 0 0
 13203.69653 13203.67905 477098.7283
 10706.7898 13839.19474 477143.2831
 6277.616927 15368.73902 477175.2976
 2137.567504 15894.17541 477194.5906
 -2137.526333 15894.17642 477194.5907
 -6277.577212 15368.73951 477175.2982
 -10706.75026 13839.1947 477143.284
 -13203.65708 13203.67967 477098.7294
 0 0 0
 0 0 0
 13839.2111 10706.77192 477143.2831
 11270.59728 11270.58015 477197.8824
 7122.595908 12036.98327 477259.1025
 2434.534565 12430.36566 477295.9568
 -2434.490509 12430.36497 477295.957
 -7122.554744 12036.98375 477259.1031
 -11270.55852 11270.58007 477197.8833
 -13839.17292 10706.77214 477143.2842
 0 0 0
 17832.49796 4366.651279 477110.8945
 15368.75489 6277.597479 477175.2974
 12037.00089 7122.576268 477259.1024
 7642.42396 7642.405103 477341.6578
 2617.258119 7895.604391 477391.5381
 -2617.213507 7895.604586 477391.5384
 -7642.381822 7642.403748 477341.6585
 -12036.96123 7122.576973 477259.1034
 -15368.71767 6277.598655 477175.2986
 -17832.46284 4366.654567 477110.8958
 17962.11621 1695.5334 477123.0018
 15894.1915 2137.546463 477194.5901
 12430.38233 2434.512868 477295.9564
 7895.623699 2617.235956 477391.5379
 2705.060063 2705.038621 477448.6744
 -2705.015256 2705.037801 477448.6747
 -7895.581943 2617.236819 477391.5386
 -12430.34323 2434.513028 477295.9575
 -15894.15425 2137.547916 477194.5914
 -17962.08014 1695.534941 477123.0031
 17962.11621 -1695.5334 477123.0018
 15894.1915 -2137.546463 477194.5901
 12430.38233 -2434.512868 477295.9564
 7895.623699 -2617.235956 477391.5379
 2705.060063 -2705.038621 477448.6744
 -2705.015256 -2705.037801 477448.6747
 -7895.581943 -2617.236819 477391.5386
 -12430.34323 -2434.513028 477295.9575
 -15894.15425 -2137.547916 477194.5914
 -17962.08014 -1695.534941 477123.0031
 17832.49796 -4366.651279 477110.8945
 15368.75489 -6277.597479 477175.2974
 12037.00089 -7122.576268 477259.1024
 7642.42396 -7642.405103 477341.6578
 2617.258119 -7895.604391 477391.5381
 -2617.213507 -7895.604586 477391.5384
 -7642.381822 -7642.403748 477341.6585
 -12036.96123 -7122.576973 477259.1034
 -15368.71767 -6277.598655 477175.2986
 -17832.46284 -4366.654567 477110.8958
 0 0 0
 13839.2111 -10706.77192 477143.2831
 11270.59728 -11270.58015 477197.8824
 7122.595908 -12036.98327 477259.1025
 2434.534565 -12430.36566 477295.9568
 -2434.490509 -12430.36497 477295.957
 -7122.554744 -12036.98375 477259.1031
 -11270.55852 -11270.58007 477197.8833
 -13839.17292 -10706.77214 477143.2842
 0 0 0
 0 0 0
 13203.69653 -13203.67905 477098.7283
 10706.7898 -13839.19474 477143.2831
 6277.616927 -15368.73902 477175.2976
 2137.567504 -15894.17541 477194.5906
 -2137.526333 -15894.17642 477194.5907
 -6277.577212 -15368.73951 477175.2982
 -10706.75026 -13839.1947 477143.284
 -13203.65708 -13203.67967 477098.7294
 0 0 0
 0 0 0
 0 0 0
 0 0 0
 4366.67361 -17832.48304 477110.8949
 1695.554362 -17962.10078 477123.0023
 -1695.513823 -17962.10201 477123.0024
 -4366.631969 -17832.48419 477110.8952
 0 0 0
 0 0 0
 0 0 0
 0 0 0
 0 0 0
 0 0 0
 3372.093295 13827.38171 477251.8243
 1309.20531 13923.06972 477259.1596
 -1309.167678 13923.0711 477259.1596
 -3372.054625 13827.38307 477251.8245
 0 0 0
 0 0 0
 0 0 0
 0 0 0
 10240.42136 10240.40556 477244.3181
 8296.801818 10722.17716 477271.4838
 4857.314366 11905.89931 477290.8205
 1652.877825 12311.36988 477302.3879
 -1652.839405 12311.37031 477302.388
 -4857.2773 11905.90092 477290.8209
 -8296.76568 10722.17806 477271.4845
 -10240.38553 10240.40754 477244.3188
 0 0 0
 0 0 0
 10722.19176 8296.785613 477271.4838
 8728.362839 8728.346768 477304.4133
 5513.563903 9321.722746 477341.1541
 1884.240476 9627.342916 477363.211
 -1884.198919 9627.343666 477363.2111
 -5513.52512 9321.722754 477341.1545
 -8728.326687 8728.348018 477304.4139
 -10722.15689 8296.786779 477271.4846
 0 0 0
 13827.39407 3372.072577 477251.8241
 11905.91351 4857.29591 477290.8204
 9321.738414 5513.545853 477341.154
 5918.881166 5918.862842 477390.6212
 2027.316312 6117.158768 477420.5082
 -2027.274235 6117.157591 477420.5084
 -5918.841275 5918.863035 477390.6217
 -9321.701524 5513.546074 477341.1547
 -11905.87951 4857.298144 477290.8212
 -13827.36278 3372.075915 477251.825
 13923.0826 1309.18582 477259.1593
 12311.38348 1652.858526 477302.3876
 9627.358778 1884.219353 477363.2107
 6117.17621 2027.296226 477420.5081
 2096.407339 2096.386154 477454.7953
 -2096.365135 2096.387374 477454.7955
 -6117.136575 2027.295679 477420.5086
 -9627.322145 1884.220875 477363.2115
 -12311.34946 1652.859306 477302.3885
 -13923.05017 1309.187471 477259.1602
 13923.0826 -1309.18582 477259.1593
 12311.38348 -1652.858526 477302.3876
 9627.358778 -1884.219353 477363.2107
 6117.17621 -2027.296226 477420.5081
 2096.407339 -2096.386154 477454.7953
 -2096.365135 -2096.387374 477454.7955
 -6117.136575 -2027.295679 477420.5086
 -9627.322145 -1884.220875 477363.2115
 -12311.34946 -1652.859306 477302.3885
 -13923.05017 -1309.187471 477259.1602
 13827.39407 -3372.072577 477251.8241
 11905.91351 -4857.29591 477290.8204
 9321.738414 -5513.545853 477341.154
 5918.881166 -5918.862842 477390.6212
 2027.316312 -6117.158768 477420.5082
 -2027.274235 -6117.157591 477420.5084
 -5918.841275 -5918.863035 477390.6217
 -9321.701524 -5513.546074 477341.1547
 -11905.87951 -4857.298144 477290.8212
 -13827.36278 -3372.075915 477251.825
 0 0 0
 10722.19176 -8296.785613 477271.4838
 8728.362839 -8728.346768 477304.4133
 5513.563903 -9321.722746 477341.1541
 1884.240476 -9627.342916 477363.211
 -1884.198919 -9627.343666 477363.2111
 -5513.52512 -9321.722754 477341.1545
 -8728.326687 -8728.348018 477304.4139
 -10722.15689 -8296.786779 477271.4846
 0 0 0
 0 0 0
 10240.42136 -10240.40556 477244.3181
 8296.801818 -10722.17716 477271.4838
 4857.314366 -11905.89931 477290.8205
 1652.877825 -12311.36988 477302.3879
 -1652.839405 -12311.37031 477302.388
 -4857.2773 -11905.90092 477290.8209
 -8296.76568 -10722.17806 477271.4845
 -10240.38553 -10240.40754 477244.3188
 0 0 0
 0 0 0
 0 0 0
 0 0 0
 3372.093295 -13827.38171 477251.8243
 1309.20531 -13923.06972 477259.1596
 -1309.167678 -13923.0711 477259.1596
 -3372.054625 -13827.38307 477251.8245
 0 0 0
 0 0 0
 0 0 0
 0 0 0
 0 0 0
 0 0 0
 2588.764255 10644.30396 477338.3165
 1004.880408 10714.2337 477342.7141
 -1004.843379 10714.23497 477342.7142
 -2588.726548 10644.30544 477338.3167
 0 0 0
 0 0 0
 0 0 0
 0 0 0
 7884.85297 7884.837917 477333.7718
 6382.025475 8246.654926 477350.1165
 3731.356123 9153.95739 477361.6589
 1268.891069 9462.75865 477368.5342
 -1268.853449 9462.759483 477368.5342
 -3731.319824 9153.958813 477361.6591
 -6381.990299 8246.656649 477350.1169
 -7884.81757 7884.840441 477333.7724
 0 0 0
 0 0 0
 8246.668742 6382.009915 477350.1165
 6707.472946 6707.45795 477369.7635
 4233.311299 7159.511689 477391.5497
 1446.055593 7392.294152 477404.5813
 -1446.016072 7392.294073 477404.5814
 -4233.273945 7159.512978 477391.5501
 -6707.438044 6707.459545 477369.764
 -8246.634819 6382.011943 477350.117
 0 0 0
 10644.31508 2588.744214 477338.3164
 9153.970213 3731.338491 477361.6587
 7159.526718 4233.293678 477391.5497
 4542.859257 4542.842433 477420.7749
 1555.524193 4694.315084 477438.3887
 -1555.48489 4694.315022 477438.3889
 -4542.821292 4542.842159 477420.7753
 -7159.491285 4233.295142 477391.5502
 -9153.93717 3731.340458 477361.6594
 -10644.28424 2588.747571 477338.317
 10714.24507 1004.861361 477342.7139
 9462.770985 1268.872077 477368.534
 7392.308211 1446.036044 477404.5811
 4694.331731 1555.504916 477438.3886
 1608.415048 1608.396417 477458.5818
 -1608.376376 1608.396208 477458.582
 -4694.294253 1555.505436 477438.389
 -7392.273258 1446.036659 477404.5816
 -9462.738196 1268.873182 477368.5346
 -10714.21337 1004.862886 477342.7146
 10714.24507 -1004.861361 477342.7139
 9462.770985 -1268.872077 477368.534
 7392.308211 -1446.036044 477404.5811
 4694.331731 -1555.504916 477438.3886
 1608.415048 -1608.396417 477458.5818
 -1608.376376 -1608.396208 477458.582
 -4694.294253 -1555.505436 477438.389
 -7392.273258 -1446.036659 477404.5816
 -9462.738196 -1268.873182 477368.5346
 -10714.21337 -1004.862886 477342.7146
 10644.31508 -2588.744214 477338.3164
 9153.970213 -3731.338491 477361.6587
 7159.526718 -4233.293678 477391.5497
 4542.859257 -4542.842433 477420.7749
 1555.524193 -4694.315084 477438.3887
 -1555.48489 -4694.315022 477438.3889
 -4542.821292 -4542.842159 477420.7753
 -7159.491285 -4233.295142 477391.5502
 -9153.93717 -3731.340458 477361.6594
 -10644.28424 -2588.747571 477338.317
 0 0 0
 8246.668742 -6382.009915 477350.1165
 6707.472946 -6707.45795 477369.7635
 4233.311299 -7159.511689 477391.5497
 1446.055593 -7392.294152 477404.5813
 -1446.016072 -7392.294073 477404.5814
 -4233.273945 -7159.512978 477391.5501
 -6707.438044 -6707.459545 477369.764
 -8246.634819 -6382.011943 477350.117
 0 0 0
 0 0 0
 7884.85297 -7884.837917 477333.7718
 6382.025475 -8246.654926 477350.1165
 3731.356123 -9153.95739 477361.6589
 1268.891069 -9462.75865 477368.5342
 -1268.853449 -9462.759483 477368.5342
 -3731.319824 -9153.958813 477361.6591
 -6381.990299 -8246.656649 477350.1169
 -7884.81757 -7884.840441 477333.7724
 0 0 0
 0 0 0
 0 0 0
 0 0 0
 2588.764255 -10644.30396 477338.3165
 1004.880408 -10714.2337 477342.7141
 -1004.843379 -10714.23497 477342.7142
 -2588.726548 -10644.30544 477338.3167
 0 0 0
 0 0 0
 0 0 0
 0 0 0
 0 0 0
 0 0 0
 1983.661035 8170.431736 477389.9668
 769.8186395 8221.451338 477392.5915
 -769.7851993 8221.452602 477392.5915
 -1983.627019 8170.432871 477389.967
 0 0 0
 0 0 0
 0 0 0
 0 0 0
 6053.753932 6053.741164 477387.2386
 4895.125191 6324.780668 477397.0111
 2858.795966 7017.57405 477403.867
 971.5728342 7251.568936 477407.941
 -971.5394476 7251.569514 477407.941
 -2858.763677 7017.575667 477403.8672
 -4895.093691 6324.782605 477397.0114
 -6053.721392 6053.744185 477387.239
 0 0 0
 0 0 0
 6324.791682 4895.112132 477397.0111
 5139.216219 5139.203621 477408.6806
 3240.251009 5481.315102 477421.5404
 1106.208167 5657.118564 477429.2038
 -1106.174478 5657.119175 477429.2038
 -3240.218539 5481.316327 477421.5406
 -5139.185595 5139.206278 477408.6809
 -6324.761322 4895.114433 477397.0115
 0 0 0
 8170.439666 1983.643434 477389.9668
 7017.58396 2858.780721 477403.867
 5481.327045 3240.236395 477421.5404
 3474.48564 3474.471761 477438.7157
 1189.074723 3588.852296 477449.0313
 -1189.041558 3588.851475 477449.0314
 -3474.453844 3474.472496 477438.716
 -5481.296154 3240.237762 477421.5407
 -7017.554503 2858.782849 477403.8674
 -8170.411673 1983.646357 477389.9672
 8221.459827 769.8015076 477392.5914
 7251.578114 971.556292 477407.9409
 5657.129513 1106.191331 477429.2037
 3588.865039 1189.059166 477449.0313
 1229.033326 1229.01807 477460.8364
 -1229.001928 1229.018633 477460.8365
 -3588.833675 1189.058873 477449.0315
 -5657.099878 1106.192541 477429.204
 -7251.549021 971.5570801 477407.9413
 -8221.430978 769.8030193 477392.5919
 8221.459827 -769.8015076 477392.5914
 7251.578114 -971.556292 477407.9409
 5657.129513 -1106.191331 477429.2037
 3588.865039 -1189.059166 477449.0313
 1229.033326 -1229.01807 477460.8364
 -1229.001928 -1229.018633 477460.8365
 -3588.833675 -1189.058873 477449.0315
 -5657.099878 -1106.192541 477429.204
 -7251.549021 -971.5570801 477407.9413
 -8221.430978 -769.8030193 477392.5919
 8170.439666 -1983.643434 477389.9668
 7017.58396 -2858.780721 477403.867
 5481.327045 -3240.236395 477421.5404
 3474.48564 -3474.471761 477438.7157
 1189.074723 -3588.852296 477449.0313
 -1189.041558 -3588.851475 477449.0314
 -3474.453844 -3474.472496 477438.716
 -5481.296154 -3240.237762 477421.5407
 -7017.554503 -2858.782849 477403.8674
 -8170.411673 -1983.646357 477389.9672
 0 0 0
 6324.791682 -4895.112132 477397.0111
 5139.216219 -5139.203621 477408.6806
 3240.251009 -5481.315102 477421.5404
 1106.208167 -5657.118564 477429.2038
 -1106.174478 -5657.119175 477429.2038
 -3240.218539 -5481.316327 477421.5406
 -5139.185595 -5139.206278 477408.6809
 -6324.761322 -4895.114433 477397.0115
 0 0 0
 0 0 0
 6053.753932 -6053.741164 477387.2386
 4895.125191 -6324.780668 477397.0111
 2858.795966 -7017.57405 477403.867
 971.5728342 -7251.568936 477407.941
 -971.5394476 -7251.569514 477407.941
 -2858.763677 -7017.575667 477403.8672
 -4895.093691 -6324.782605 477397.0114
 -6053.721392 -6053.744185 477387.239
 0 0 0
 0 0 0
 0 0 0
 0 0 0
 1983.661035 -8170.431736 477389.9668
 769.8186395 -8221.451338 477392.5915
 -769.7851993 -8221.452602 477392.5915
 -1983.627019 -8170.432871 477389.967
 0 0 0
 0 0 0
 0 0 0
 0 0 0
 0 0 0
 0 0 0
 1522.228801 6275.828258 477420.3264
 590.5991327 6313.201192 477421.8952
 -590.570754 6313.202296 477421.8952
 -1522.19991 6275.829084 477420.3265
 0 0 0
 0 0 0
 0 0 0
 0 0 0
 4651.158455 4651.14877 477418.6892
 3757.514616 4854.628086 477424.5333
 2192.418748 5383.852365 477428.6111
 744.7050462 5561.213971 477431.0313
 -744.6775311 5561.214728 477431.0313
 -2192.392019 5383.853478 477428.6112
 -3757.48816 4854.630322 477424.5335
 -4651.130456 4651.152276 477418.6895
 0 0 0
 0 0 0
 4854.635803 3757.504836 477424.5333
 3940.706112 3940.697189 477431.4747
 2482.099677 4199.484948 477439.0797
 846.888005 4332.087202 477443.5957
 -846.8610025 4332.087381 477443.5958
 -2482.073819 4199.487053 477439.0798
 -3940.680771 3940.699516 477431.4749
 -4854.610084 3757.507507 477424.5335
 0 0 0
 6275.83246 1522.214362 477420.3264
 5383.858265 2192.407085 477428.6111
 4199.493126 2482.088432 477439.0797
 2659.019993 2659.010419 477449.1916
 909.4512157 2745.128676 477455.2424
 -909.4262497 2745.128779 477455.2424
 -2658.995147 2659.01064 477449.1918
 -4199.468786 2482.090625 477439.0799
 -5383.833799 2192.408663 477428.6114
 -6275.808556 1522.216961 477420.3267
 6313.205899 590.5847073 477421.8951
 5561.219374 744.6915624 477431.0312
 4332.093996 846.8750545 477443.5957
 2745.137627 909.4393841 477455.2423
 939.5233829 939.5126846 477462.1513
 -939.4999347 939.5125066 477462.1513
 -2745.114007 909.4399495 477455.2425
 -4332.070499 846.87572 477443.5959
 -5561.195413 744.6924442 477431.0315
 -6313.181188 590.5860989 477421.8954
 6313.205899 -590.5847073 477421.8951
 5561.219374 -744.6915624 477431.0312
 4332.093996 -846.8750545 477443.5957
 2745.137627 -909.4393841 477455.2423
 939.5233829 -939.5126846 477462.1513
 -939.4999347 -939.5125066 477462.1513
 -2745.114007 -909.4399495 477455.2425
 -4332.070499 -846.87572 477443.5959
 -5561.195413 -744.6924442 477431.0315
 -6313.181188 -590.5860989 477421.8954
 6275.83246 -1522.214362 477420.3264
 5383.858265 -2192.407085 477428.6111
 4199.493126 -2482.088432 477439.0797
 2659.019993 -2659.010419 477449.1916
 909.4512157 -2745.128676 477455.2424
 -909.4262497 -2745.128779 477455.2424
 -2658.995147 -2659.01064 477449.1918
 -4199.468786 -2482.090625 477439.0799
 -5383.833799 -2192.408663 477428.6114
 -6275.808556 -1522.216961 477420.3267
 0 0 0
 4854.635803 -3757.504836 477424.5333
 3940.706112 -3940.697189 477431.4747
 2482.099677 -4199.484948 477439.0797
 846.888005 -4332.087202 477443.5957
 -846.8610025 -4332.087381 477443.5958
 -2482.073819 -4199.487053 477439.0798
 -3940.680771 -3940.699516 477431.4749
 -4854.610084 -3757.507507 477424.5335
 0 0 0
 0 0 0
 4651.158455 -4651.14877 477418.6892
 3757.514616 -4854.628086 477424.5333
 2192.418748 -5383.852365 477428.6111
 744.7050462 -5561.213971 477431.0313
 -744.6775311 -5561.214728 477431.0313
 -2192.392019 -5383.853478 477428.6112
 -3757.48816 -4854.630322 477424.5335
 -4651.130456 -4651.152276 477418.6895
 0 0 0
 0 0 0
 0 0 0
 0 0 0
 1522.228801 -6275.828258 477420.3264
 590.5991327 -6313.201192 477421.8952
 -590.570754 -6313.202296 477421.8952
 -1522.19991 -6275.829084 477420.3265
 0 0 0
 0 0 0
 0 0 0
 0 0 0
 0 0 0
 0 0 0
 1173.144677 4838.138425 477438.0457
 455.0442045 4865.733902 477438.9897
 -455.0193212 4865.734573 477438.9897
 -1173.11955 4838.138889 477438.0457
 0 0 0
 0 0 0
 0 0 0
 0 0 0
 3586.633813 3586.626278 477437.0571
 2895.092524 3740.24345 477440.5725
 1688.019279 4146.004824 477443.015
 573.1200277 4280.988776 477444.4637
 -573.0960618 4280.988966 477444.4638
 -1687.996017 4146.006193 477443.015
 -2895.06919 3740.245571 477440.5727
 -3586.608964 3586.630032 477437.0572
 0 0 0
 0 0 0
 3740.248965 2895.084841 477440.5726
 3033.241451 3033.234434 477444.73
 1908.749062 3229.735648 477449.2609
 650.9094482 3330.104119 477451.9432