# OOMMF OVF 2.0
#
# Segment count: 1
#
# Begin: Segment
# Begin: Header
#
# Title: Oxs_MinDriver::Magnetization
# Desc: Oxs vector field output
# Desc:  MIF source file: F:/Bogdan/UNIC/2022/Master_degree/Simulation_samples/Cylinder0_5000.mif
# Desc:  Iteration: 1699, State id: 19098
# Desc:  Stage: 5, Stage iteration: 91
# Desc:  Stage simulation time: 0 s
# Desc:  Total simulation time: -2 s
# meshunit: m
# meshtype: rectangular
# xbase: -8.9999999999999995e-09
# ybase: -8.9999999999999995e-09
# zbase: -8.6999999999999998e-08
# xnodes: 10
# ynodes: 10
# znodes: 88
# xstepsize: 2.0000000000000001e-09
# ystepsize: 2.0000000000000001e-09
# zstepsize: 2.0000000000000001e-09
# xmin: -1e-08
# ymin: -1e-08
# zmin: -8.7999999999999994e-08
# xmax: 1e-08
# ymax: 1e-08
# zmax: 8.800000000000002e-08
# valuedim: 3
# valuelabels: Magnetization_x Magnetization_y Magnetization_z
# valueunits: A/m A/m A/m
#
# End: Header
#
# Begin: Data Text
 0 0 0
 0 0 0
 0 0 0
 477373.1932 2049.966163 9083.137346
 477451.1774 779.9385533 3411.184226
 477451.1775 -779.9371888 -3411.172339
 477373.1934 -2049.964806 -9083.125415
 0 0 0
 0 0 0
 0 0 0
 0 0 0
 476737.6349 6195.998663 25587.27029
 477024.3924 3261.584077 20222.82028
 477312.4806 1342.214648 11952.64031
 477446.7649 469.1675751 4029.619191
 477446.765 -469.1664019 -4029.607386
 477312.4809 -1342.213506 -11952.6285
 477024.3929 -3261.583049 -20222.8085
 476737.6355 -6195.997687 -25587.25847
 0 0 0
 0 0 0
 476705.3568 3303.1413 26701.37359
 477003.3732 2193.831933 20852.82518
 477289.3279 1037.383257 12872.16385
 477444.1413 315.9704845 4343.197255
 477444.1414 -315.9695922 -4343.185533
 477289.3282 -1037.38239 -12872.15213
 477003.3738 -2193.831111 -20852.81344
 476705.3575 -3303.140515 -26701.3618
 0 0 0
 476217.6791 2049.560412 34415.00715
 476590.7064 1363.925053 28832.44009
 476970.7807 1049.09859 21671.29484
 477276.8741 582.6814199 13353.5475
 477442.7234 182.1134544 4503.775952
 477442.7235 -182.1129006 -4503.764289
 477276.8744 -582.6808765 -13353.53583
 476970.7813 -1049.098081 -21671.28315
 476590.7071 -1363.924588 -28832.42839
 476217.6799 -2049.56008 -34414.99546
 476197.6557 780.4593324 34742.69477
 476557.1647 474.3032753 29409.4397
 476955.6398 320.6246153 22024.67225
 477271.3426 183.3851553 13561.09079
 477442.0981 58.57207251 4572.837408
 477442.0982 -58.57188333 -4572.825777
 477271.3429 -183.3849747 -13561.07915
 476955.6403 -320.6244382 -22024.66059
 476557.1654 -474.3031218 -29409.42802
 476197.6566 -780.4592046 -34742.68306
 476197.6557 -780.4593323 34742.69477
 476557.1647 -474.3032753 29409.43969
 476955.6398 -320.6246152 22024.67225
 477271.3426 -183.3851553 13561.09078
 477442.0981 -58.57207247 4572.837422
 477442.0982 58.57188336 -4572.825791
 477271.3429 183.3849747 -13561.07914
 476955.6403 320.6244382 -22024.6606
 476557.1654 474.3031218 -29409.42802
 476197.6566 780.4592046 -34742.68307
 476217.6791 -2049.560412 34415.00715
 476590.7064 -1363.925053 28832.4401
 476970.7807 -1049.09859 21671.29483
 477276.8741 -582.6814198 13353.54752
 477442.7234 -182.1134544 4503.775939
 477442.7235 182.1129006 -4503.764276
 477276.8744 582.6808765 -13353.53585
 476970.7813 1049.098081 -21671.28314
 476590.7071 1363.924588 -28832.42839
 476217.6799 2049.56008 -34414.99546
 0 0 0
 476705.3568 -3303.1413 26701.37359
 477003.3732 -2193.831933 20852.82518
 477289.3279 -1037.383257 12872.16385
 477444.1413 -315.9704845 4343.197265
 477444.1414 315.9695922 -4343.185542
 477289.3282 1037.38239 -12872.15212
 477003.3738 2193.831111 -20852.81345
 476705.3575 3303.140515 -26701.3618
 0 0 0
 0 0 0
 476737.6349 -6195.998663 25587.27029
 477024.3924 -3261.584077 20222.82027
 477312.4806 -1342.214648 11952.64032
 477446.7649 -469.1675751 4029.619185
 477446.765 469.166402 -4029.607381
 477312.4809 1342.213506 -11952.62851
 477024.3929 3261.58305 -20222.8085
 476737.6355 6195.997687 -25587.25847
 0 0 0
 0 0 0
 0 0 0
 0 0 0
 477373.1932 -2049.966163 9083.137345
 477451.1774 -779.9385533 3411.184228
 477451.1775 779.9371889 -3411.172341
 477373.1934 2049.964806 -9083.125414
 0 0 0
 0 0 0
 0 0 0
 0 0 0
 0 0 0
 0 0 0
 477393.5906 2158.717434 7910.178925
 477453.6625 817.8693312 3033.572556
 477453.6626 -817.8680446 -3033.560311
 477393.5908 -2158.716154 -7910.166633
 0 0 0
 0 0 0
 0 0 0
 0 0 0
 476867.2754 6618.272264 22927.5246
 477099.0423 3326.384719 18366.00989
 477339.1901 1284.551508 10840.60797
 477449.6327 451.4279568 3676.371947
 477449.6328 -451.4268356 -3676.359781
 477339.1904 -1284.550426 -10840.59579
 477099.0428 -3326.383748 -18365.99775
 476867.276 -6618.271349 -22927.5124
 0 0 0
 0 0 0
 476844.5954 3385.076741 24075.80478
 477074.9357 2183.115199 19147.08854
 477314.3159 981.192602 11914.37758
 477446.8508 292.143511 4036.167136
 477446.8509 -292.1426549 -4036.155051
 477314.3162 -981.1917635 -11914.36549
 477074.9362 -2183.114422 -19147.07642
 476844.596 -3385.075993 -24075.79261
 0 0 0
 476456.9647 2138.114768 30920.2285
 476736.0133 1305.817918 26323.74905
 477040.1427 994.1785357 20089.42849
 477300.4623 540.1829554 12483.91683
 477445.2675 166.0207503 4226.139976
 477445.2676 -166.0202111 -4226.127956
 477300.4626 -540.1824408 -12483.9048
 477040.1432 -994.1780365 -20089.41644
 476736.014 -1305.817486 -26323.73696
 476456.9655 -2138.11446 -30920.21643
 476437.7622 816.60954 31277.19854
 476698.537 456.4580704 27021.61728
 477022.7489 297.349934 20520.23262
 477294.1327 167.4935449 12733.97377
 477444.5542 52.92429869 4308.849532
 477444.5543 -52.92411955 -4308.837543
 477294.1331 -167.4933593 -12733.96177
 477022.7494 -297.3497775 -20520.2206
 476698.5376 -456.4579136 -27021.60522
 476437.763 -816.6094245 -31277.18644
 476437.7622 -816.60954 31277.19853
 476698.537 -456.4580704 27021.6173
 477022.7489 -297.3499339 20520.2326
 477294.1327 -167.4935449 12733.9738
 477444.5542 -52.92429866 4308.849493
 477444.5543 52.92411958 -4308.837504
 477294.1331 167.4933593 -12733.9618
 477022.7494 297.3497775 -20520.22057
 476698.5376 456.4579136 -27021.60524
 476437.763 816.6094245 -31277.18643
 476456.9647 -2138.114768 30920.22851
 476736.0133 -1305.817918 26323.74904
 477040.1427 -994.1785357 20089.42851
 477300.4623 -540.1829554 12483.9168
 477445.2675 -166.0207503 4226.140011
 477445.2676 166.0202111 -4226.12799
 477300.4626 540.1824409 -12483.90477
 477040.1432 994.1780365 -20089.41646
 476736.014 1305.817486 -26323.73695
 476456.9655 2138.11446 -30920.21643
 0 0 0
 476844.5954 -3385.076741 24075.80478
 477074.9357 -2183.115198 19147.08852
 477314.3159 -981.1926019 11914.3776
 477446.8508 -292.1435109 4036.16711
 477446.8509 292.1426549 -4036.155025
 477314.3162 981.1917635 -11914.36551
 477074.9362 2183.114422 -19147.07641
 476844.596 3385.075993 -24075.79261
 0 0 0
 0 0 0
 476867.2754 -6618.272264 22927.52459
 477099.0423 -3326.384719 18366.00989
 477339.1901 -1284.551508 10840.60795
 477449.6327 -451.4279567 3676.371963
 477449.6328 451.4268356 -3676.359796
 477339.1904 1284.550426 -10840.59578
 477099.0428 3326.383748 -18365.99776
 476867.276 6618.271349 -22927.5124
 0 0 0
 0 0 0
 0 0 0
 0 0 0
 477393.5906 -2158.717434 7910.178929
 477453.6625 -817.8693312 3033.572551
 477453.6626 817.8680447 -3033.560306
 477393.5908 2158.716154 -7910.166636
 0 0 0
 0 0 0
 0 0 0
 0 0 0
 0 0 0
 0 0 0
 477411.8011 2336.587289 6662.121682
 477456.264 882.7530045 2570.611542
 477456.264 -882.7518069 -2570.598721
 477411.8012 -2336.5861 -6662.108813
 0 0 0
 0 0 0
 0 0 0
 0 0 0
 477007.2842 7099.208965 19634.74915
 477187.803 3584.465248 15837.41147
 477370.4608 1391.114526 9347.684993
 477453.1779 482.1352441 3178.319568
 477453.178 -482.1341985 -3178.306813
 477370.4611 -1391.113509 -9347.672236
 477187.8034 -3584.464351 -15837.39874
 477007.2847 -7099.208115 -19634.73638
 0 0 0
 0 0 0
 477000.2975 3650.725364 20718.582
 477167.8658 2325.057979 16652.12406
 477348.8192 1029.169117 10436.32792
 477450.7134 302.0971233 3549.125945
 477450.7135 -302.0963127 -3549.113271
 477348.8195 -1029.168343 -10436.31523
 477167.8663 -2325.05724 -16652.11136
 477000.2981 -3650.724675 -20718.56924
 0 0 0
 476721.5222 2304.400163 26517.0003
 476917.2118 1411.662803 22800.25499
 477137.5963 1042.746902 17620.95878
 477335.8407 553.3849074 11048.08964
 477449.1923 167.3964447 3756.596168
 477449.1924 -167.3959421 -3756.58355
 477335.841 -553.3844043 -11048.07701
 477137.5968 -1042.746455 -17620.94612
 476917.2124 -1411.662385 -22800.24231
 476721.5229 -2304.399884 -26516.98764
 476706.8836 878.6959733 26863.47473
 476884.7031 486.6098874 23507.75221
 477121.1473 307.5352933 18088.32635
 477329.5854 168.9824939 11327.38571
 477448.4745 52.59087325 3850.030116
 477448.4746 -52.59069559 -3850.017533
 477329.5857 -168.9823396 -11327.37311
 477121.1477 -307.5351202 -18088.31372
 476884.7038 -486.6097622 -23507.73954
 476706.8844 -878.6958597 -26863.46204
 476706.8836 -878.6959733 26863.47474
 476884.7031 -486.6098873 23507.75218
 477121.1473 -307.5352932 18088.32638
 477329.5854 -168.9824938 11327.38566
 477448.4745 -52.59087322 3850.030171
 477448.4746 52.59069562 -3850.017588
 477329.5857 168.9823396 -11327.37306
 477121.1477 307.5351202 -18088.31376
 476884.7038 486.6097623 -23507.73952
 476706.8844 878.6958597 -26863.46205
 476721.5222 -2304.400163 26517.0003
 476917.2118 -1411.662803 22800.25501
 477137.5963 -1042.746902 17620.95875
 477335.8407 -553.3849073 11048.08968
 477449.1923 -167.3964447 3756.59612
 477449.1924 167.3959421 -3756.583501
 477335.8409 553.3844043 -11048.07706
 477137.5968 1042.746456 -17620.94609
 476917.2124 1411.662385 -22800.24233
 476721.5229 2304.399884 -26516.98764
 0 0 0
 477000.2975 -3650.725364 20718.582
 477167.8658 -2325.057979 16652.12408
 477348.8192 -1029.169117 10436.32789
 477450.7134 -302.0971233 3549.125982
 477450.7135 302.0963128 -3549.113309
 477348.8195 1029.168343 -10436.31519
 477167.8663 2325.05724 -16652.11138
 477000.2981 3650.724675 -20718.56923
 0 0 0
 0 0 0
 477007.2842 -7099.208965 19634.74915
 477187.803 -3584.465248 15837.41146
 477370.4608 -1391.114526 9347.685011
 477453.1779 -482.135244 3178.319546
 477453.178 482.1341985 -3178.306791
 477370.4611 1391.11351 -9347.672254
 477187.8034 3584.464351 -15837.39873
 477007.2847 7099.208115 -19634.73638
 0 0 0
 0 0 0
 0 0 0
 0 0 0
 477411.8011 -2336.587289 6662.121677
 477456.264 -882.7530045 2570.611549
 477456.264 882.7518069 -2570.598728
 477411.8012 2336.5861 -6662.108808
 0 0 0
 0 0 0
 0 0 0
 0 0 0
 0 0 0
 0 0 0
 477425.3908 2534.575002 5517.561127
 477458.2788 957.1501849 2132.418485
 477458.2788 -957.1490712 -2132.404943
 477425.3909 -2534.573894 -5517.54754
 0 0 0
 0 0 0
 0 0 0
 0 0 0
 477121.9156 7569.098975 16409.07297
 477263.2933 3913.735539 13277.90869
 477397.0706 1573.464529 7837.89058
 477456.2403 541.331393 2667.737156
 477456.2404 -541.3304144 -2667.723676
 477397.0708 -1573.463593 -7837.877085
 477263.2937 -3913.734697 -13277.89525
 477121.9161 -7569.098189 -16409.05948
 0 0 0
 0 0 0
 477131.5743 3984.16785 17362.5618
 477250.9624 2557.166344 14030.36176
 477380.8934 1153.403978 8833.093932
 477454.3796 340.4215684 3011.778096
 477454.3797 -340.4208185 -3011.764676
 477380.8937 -1153.403237 -8833.080519
 477250.9628 -2557.165676 -14030.34831
 477131.5748 -3984.1672 -17362.54831
 0 0 0
 476942.2562 2495.307926 22174.96274
 477076.5139 1593.468264 19165.90844
 477229.1971 1167.255225 14926.56194
 477370.6989 619.5740842 9418.238544
 477453.1499 187.5325103 3213.377566
 477453.15 -187.5320297 -3213.364209
 477370.6992 -619.5736401 -9418.22516
 477229.1975 -1167.254778 -14926.54855
 477076.5144 -1593.4679 -19165.89502
 476942.2568 -2495.307663 -22174.94936
 476933.413 950.9263311 22483.03019
 477052.657 545.3097561 19807.48286
 477216.3125 345.9415335 15373.44018
 477365.5421 189.1731084 9694.058609
 477452.5436 58.70605783 3307.027787
 477452.5437 -58.70590274 -3307.014453
 477365.5423 -189.1729337 -9694.045267
 477216.313 -345.9414097 -15373.42681
 477052.6576 -545.3096101 -19807.46947
 476933.4136 -950.9262369 -22483.01678
 476933.413 -950.9263311 22483.03018
 477052.657 -545.3097561 19807.48288
 477216.3125 -345.9415335 15373.44014
 477365.542 -189.1731084 9694.058662
 477452.5436 -58.70605779 3307.027727
 477452.5437 58.70590276 -3307.014394
 477365.5423 189.1729338 -9694.04532
 477216.313 345.9414097 -15373.42677
 477052.6576 545.3096101 -19807.46949
 476933.4136 950.926237 -22483.01677
 476942.2562 -2495.307926 22174.96275
 477076.5139 -1593.468264 19165.90842
 477229.1971 -1167.255225 14926.56197
 477370.6989 -619.5740841 9418.238497
 477453.1499 -187.5325103 3213.377619
 477453.15 187.5320297 -3213.364262
 477370.6992 619.5736401 -9418.225114
 477229.1975 1167.254778 -14926.54858
 477076.5144 1593.4679 -19165.895
 476942.2568 2495.307663 -22174.94937
 0 0 0
 477131.5743 -3984.16785 17362.56181
 477250.9624 -2557.166344 14030.36174
 477380.8934 -1153.403978 8833.093966
 477454.3796 -340.4215683 3011.778055
 477454.3797 340.4208185 -3011.764636
 477380.8937 1153.403237 -8833.080553
 477250.9628 2557.165676 -14030.34829
 477131.5748 3984.1672 -17362.54832
 0 0 0
 0 0 0
 477121.9156 -7569.098975 16409.07297
 477263.2933 -3913.735539 13277.9087
 477397.0706 -1573.464529 7837.89056
 477456.2403 -541.3313931 2667.73718
 477456.2404 541.3304144 -2667.7237
 477397.0708 1573.463593 -7837.877066
 477263.2937 3913.734697 -13277.89526
 477121.9161 7569.098189 -16409.05948
 0 0 0
 0 0 0
 0 0 0
 0 0 0
 477425.3908 -2534.575002 5517.561132
 477458.2788 -957.1501849 2132.418477
 477458.2788 957.1490712 -2132.404935
 477425.3909 2534.573894 -5517.547545
 0 0 0
 0 0 0
 0 0 0
 0 0 0
 0 0 0
 0 0 0
 477434.8454 2720.922339 4520.650436
 477459.6927 1028.335901 1748.037104
 477459.6928 -1028.334856 -1748.022747
 477434.8455 -2720.921302 -4520.636027
 0 0 0
 0 0 0
 0 0 0
 0 0 0
 477205.8492 7991.101027 13512.62868
 477319.608 4237.78089 10950.08526
 477416.9773 1767.273826 6463.57519
 477458.5416 606.9154492 2200.905455
 477458.5417 -606.9145381 -2200.891145
 477416.9775 -1767.272936 -6463.56089
 477319.6083 -4237.780112 -10950.07099
 477205.8496 -7991.100287 -13512.61438
 0 0 0
 0 0 0
 477229.8296 4311.12375 14316.95665
 477314.7995 2807.411545 11600.51441
 477406.0819 1302.646407 7321.703985
 477457.2945 389.6303318 2500.279559
 477457.2946 -389.6296198 -2500.265319
 477406.0821 -1302.645738 -7321.689718
 477314.7998 -2807.410894 -11600.50016
 477229.83 -4311.123156 -14316.94233
 0 0 0
 477107.0144 2676.568173 18264.8325
 477198.2693 1786.823625 15826.88753
 477301.7069 1316.639669 12378.13866
 477399.1 708.7867908 7840.166909
 477456.4247 216.7811885 2680.83113
 477456.4247 -216.7807511 -2680.816926
 477399.1003 -708.786341 -7840.152714
 477301.7073 -1316.639292 -12378.12442
 477198.2697 -1786.823254 -15826.8733
 477107.0149 -2676.567936 -18264.81831
 477103.3781 1020.449988 18525.56459
 477182.6947 610.472674 16376.03527
 477292.954 395.169585 12773.06588
 477395.4155 218.4483997 8089.550065
 477455.9804 68.28600044 2766.474299
 477455.9805 -68.28584012 -2766.460128
 477395.4158 -218.4482755 -8089.535875
 477292.9544 -395.1694205 -12773.05168
 477182.6952 -610.4725763 -16376.02104
 477103.3787 -1020.449886 -18525.55036
 477103.3781 -1020.449988 18525.5646
 477182.6947 -610.472674 16376.03525
 477292.954 -395.169585 12773.06591
 477395.4155 -218.4483997 8089.550019
 477455.9804 -68.28600044 2766.474352
 477455.9805 68.28584017 -2766.460181
 477395.4158 218.4482755 -8089.535828
 477292.9544 395.1694206 -12773.05172
 477182.6952 610.4725763 -16376.02102
 477103.3787 1020.449886 -18525.55037
 477107.0144 -2676.568173 18264.83249
 477198.2693 -1786.823625 15826.88754
 477301.7069 -1316.639669 12378.13863
 477399.1 -708.7867908 7840.16695
 477456.4247 -216.7811884 2680.831083
 477456.4247 216.7807511 -2680.816879
 477399.1003 708.7863411 -7840.152755
 477301.7073 1316.639292 -12378.12439
 477198.2697 1786.823254 -15826.87332
 477107.0149 2676.567936 -18264.8183
 0 0 0
 477229.8296 -4311.12375 14316.95664
 477314.7995 -2807.411545 11600.51443
 477406.0819 -1302.646407 7321.703955
 477457.2945 -389.6303319 2500.279594
 477457.2946 389.6296199 -2500.265354
 477406.0821 1302.645738 -7321.689688
 477314.7998 2807.410894 -11600.50018
 477229.83 4311.123156 -14316.94233
 0 0 0
 0 0 0
 477205.8492 -7991.101027 13512.62868
 477319.608 -4237.78089 10950.08525
 477416.9773 -1767.273826 6463.575207
 477458.5416 -606.9154491 2200.905434
 477458.5417 606.914538 -2200.891123
 477416.9775 1767.272936 -6463.560907
 477319.6083 4237.780112 -10950.07099
 477205.8496 7991.100287 -13512.61439
 0 0 0
 0 0 0
 0 0 0
 0 0 0
 477434.8454 -2720.922339 4520.650432
 477459.6927 -1028.335901 1748.037111
 477459.6928 1028.334856 -1748.022753
 477434.8455 2720.921302 -4520.636023
 0 0 0
 0 0 0
 0 0 0
 0 0 0
 0 0 0
 0 0 0
 477441.1372 2881.656241 3678.027543
 477460.6361 1090.271685 1422.51466
 477460.6362 -1090.270699 -1422.499418
 477441.1373 -2881.655259 -3678.012255
 0 0 0
 0 0 0
 0 0 0
 0 0 0
 477263.6329 8348.934703 11026.84588
 477358.8445 4523.02309 8941.317329
 477430.8846 1942.923556 5277.004074
 477460.1514 667.4378447 1797.128972
 477460.1514 -667.4369781 -1797.113786
 477430.8848 -1942.922732 -5276.988869
 477358.8448 -4523.022344 -8941.302203
 477263.6332 -8348.93401 -11026.8307
 0 0 0
 0 0 0
 477298.7321 4598.540705 11689.52849
 477360.1408 3036.781875 9483.947056
 477424.1932 1445.566243 5993.446558
 477459.4052 438.0187171 2048.358845
 477459.4053 -438.0180574 -2048.343699
 477424.1934 -1445.565583 -5993.431437
 477360.1411 -3036.781293 -9483.931893
 477298.7325 -4598.540128 -11689.51331
 0 0 0
 477222.8944 2833.274227 14904.79656
 477284.8386 1962.021042 12930.76401
 477354.1935 1459.616713 10134.82702
 477419.9978 798.5338164 6432.679695
 477458.8569 247.0939682 2202.312559
 477458.857 -247.0935398 -2202.297471
 477419.998 -798.5334342 -6432.664576
 477354.1939 -1459.616308 -10134.81193
 477284.839 -1962.020729 -12930.74888
 477222.8948 -2833.273993 -14904.7815
 477223.32 1081.022782 15119.70619
 477275.8273 670.6047731 13386.79595
 477349.0163 443.5366115 10468.58095
 477417.6736 248.7714866 6646.375459
 477458.5677 78.51846732 2276.238892
 477458.5678 -78.51833465 -2276.223818
 477417.6738 -248.7713212 -6646.360387
 477349.0167 -443.5365162 -10468.56585
 477275.8277 -670.604634 -13386.78085
 477223.3205 -1081.022703 -15119.69109
 477223.32 -1081.022782 15119.70618
 477275.8273 -670.6047731 13386.79596
 477349.0163 -443.5366115 10468.58093
 477417.6736 -248.7714866 6646.375493
 477458.5677 -78.51846728 2276.238854
 477458.5678 78.51833464 -2276.22378
 477417.6738 248.7713212 -6646.360421
 477349.0167 443.5365162 -10468.56583
 477275.8277 670.6046341 -13386.78087
 477223.3205 1081.022703 -15119.69108
 477222.8944 -2833.274227 14904.79656
 477284.8386 -1962.021042 12930.764
 477354.1935 -1459.616713 10134.82705
 477419.9978 -798.5338164 6432.679666
 477458.8569 -247.0939682 2202.312592
 477458.857 247.0935399 -2202.297505
 477419.998 798.5334341 -6432.664547
 477354.1939 1459.616308 -10134.81195
 477284.839 1962.020729 -12930.74887
 477222.8948 2833.273993 -14904.78151
 0 0 0
 477298.7321 -4598.540705 11689.5285
 477360.1408 -3036.781875 9483.947041
 477424.1932 -1445.566243 5993.446579
 477459.4053 -438.018717 2048.358819
 477459.4053 438.0180573 -2048.343674
 477424.1934 1445.565583 -5993.431458
 477360.1411 3036.781293 -9483.931879
 477298.7325 4598.540128 -11689.51332
 0 0 0
 0 0 0
 477263.6329 -8348.934703 11026.84588
 477358.8445 -4523.02309 8941.317335
 477430.8846 -1942.923556 5277.004061
 477460.1514 -667.4378448 1797.128988
 477460.1514 667.4369782 -1797.113801
 477430.8848 1942.922732 -5276.988857
 477358.8448 4523.022344 -8941.302209
 477263.6332 8348.93401 -11026.8307
 0 0 0
 0 0 0
 0 0 0
 0 0 0
 477441.1372 -2881.656241 3678.027546
 477460.6361 -1090.271685 1422.514656
 477460.6362 1090.270699 -1422.499414
 477441.1373 2881.655259 -3678.012258
 0 0 0
 0 0 0
 0 0 0
 0 0 0
 0 0 0
 0 0 0
 477445.1891 3013.645783 2980.043457
 477461.2444 1141.364568 1152.66914
 477461.2445 -1141.363626 -1152.652979
 477445.1892 -3013.644851 -2980.02724
 0 0 0
 0 0 0
 0 0 0
 0 0 0
 477301.8857 8641.032413 8950.629666
 477385.0824 4759.859957 7259.347808
 477440.2091 2090.616745 4283.382959
 477461.2306 718.7590176 1458.751332
 477461.2307 -718.7582003 -1458.735211
 477440.2092 -2090.615943 -4283.366859
 477385.0827 -4759.85926 -7259.33175
 477301.886 -8641.031746 -8950.613586
 0 0 0
 0 0 0
 477345.1797 4836.998716 9489.68653
 477390.9166 3230.925214 7703.58121
 477436.5736 1569.052798 4871.094989
 477460.8539 480.3554777 1665.411139
 477460.8539 -480.3548368 -1665.395084
 477436.5738 -1569.052204 -4871.078904
 477390.9169 -3230.924623 -7703.565168
 477345.18 -4836.998187 -9489.670415
 0 0 0
 477301.5405 2961.972513 12097.0002
 477343.874 2109.251299 10499.92106
 477390.3059 1583.099912 8237.775722
 477434.5042 877.9884881 5233.98586
 477460.5543 274.3258037 1793.074958
 477460.5544 -274.3254155 -1793.058925
 477434.5044 -877.9880764 -5233.969851
 477390.3062 -1583.099584 -8237.759668
 477343.8743 -2109.250959 -10499.90504
 477301.5409 -2961.972302 -12096.98423
 477304.9311 1130.966164 12271.7134
 477339.6446 721.5580228 10872.64283
 477387.855 485.8250647 8513.000826
 477433.2518 276.0030155 5411.579588
 477460.3893 87.85169782 1854.774794
 477460.3894 -87.85155023 -1854.758795
 477433.252 -276.0029149 -5411.563572
 477387.8553 -485.8249049 -8512.984821
 477339.6449 -721.557945 -10872.62681
 477304.9315 -1130.966069 -12271.69739
 477304.9311 -1130.966164 12271.7134
 477339.6446 -721.5580228 10872.64283
 477387.855 -485.8250647 8513.00084
 477433.2518 -276.0030155 5411.579571
 477460.3893 -87.85169783 1854.774814
 477460.3894 87.85155027 -1854.758814
 477433.252 276.0029149 -5411.563555
 477387.8553 485.8249049 -8512.984834
 477339.6449 721.557945 -10872.6268
 477304.9315 1130.966069 -12271.6974
 477301.5405 -2961.972513 12097.0002
 477343.874 -2109.251299 10499.92106
 477390.3059 -1583.099912 8237.77571
 477434.5042 -877.9884881 5233.985875
 477460.5543 -274.3258036 1793.074941
 477460.5544 274.3254154 -1793.058908
 477434.5044 877.9880765 -5233.969866
 477390.3062 1583.099584 -8237.759657
 477343.8743 2109.250959 -10499.90505
 477301.5409 2961.972302 -12096.98423
 0 0 0
 477345.1797 -4836.998716 9489.686527
 477390.9166 -3230.925214 7703.581217
 477436.5736 -1569.052798 4871.094977
 477460.8539 -480.3554777 1665.411152
 477460.8539 480.3548369 -1665.395097
 477436.5738 1569.052204 -4871.078893
 477390.9169 3230.924623 -7703.565175
 477345.18 4836.998187 -9489.670412
 0 0 0
 0 0 0
 477301.8857 -8641.032413 8950.629667
 477385.0824 -4759.859957 7259.347805
 477440.2091 -2090.616745 4283.382966
 477461.2306 -718.7590176 1458.751324
 477461.2307 718.7582003 -1458.735203
 477440.2092 2090.615943 -4283.366865
 477385.0827 4759.85926 -7259.331747
 477301.886 8641.031747 -8950.613587
 0 0 0
 0 0 0
 0 0 0
 0 0 0
 477445.1891 -3013.645783 2980.043455
 477461.2444 -1141.364568 1152.669142
 477461.2445 1141.363626 -1152.652982
 477445.1892 3013.644851 -2980.027238
 0 0 0
 0 0 0
 0 0 0
 0 0 0
 0 0 0
 0 0 0
 477447.731 3118.988104 2409.849437
 477461.6264 1182.242394 932.147081
 477461.6265 -1182.241493 -932.129972
 477447.7311 -3118.987205 -2409.832279
 0 0 0
 0 0 0
 0 0 0
 0 0 0
 477326.5329 8873.751278 7246.298285
 477402.1654 4950.125154 5877.077125
 477446.2982 2209.95472 3466.948201
 477461.9348 760.3976522 1180.632091
 477461.9349 -760.3968606 -1180.615036
 477446.2983 -2209.953969 -3466.931131
 477402.1656 -4950.12447 -5877.060149
 477326.5332 -8873.750645 -7246.281262
 0 0 0
 0 0 0
 477375.7143 5028.455811 7682.010689
 477411.2341 3388.372297 6237.28969
 477444.7836 1670.22935 3944.651594
 477461.8167 515.2626359 1348.848219
 477461.8168 -515.2620369 -1348.8312
 477444.7837 -1670.228744 -3944.634607
 477411.2343 -3388.371771 -6237.272668
 477375.7146 -5028.455282 -7681.993655
 0 0 0
 477353.745 3064.627116 9791.910799
 477383.1317 2228.138842 8500.13456
 477414.4203 1684.236341 6671.274972
 477444.2361 943.9056896 4240.491829
 477461.6963 297.0909119 1453.129373
 477461.6964 -297.0905198 -1453.112409
 477444.2362 -943.9053484 -4240.474837
 477414.4206 -1684.235964 -6671.258019
 477383.132 -2228.138562 -8500.117584
 477353.7453 -3064.626901 -9791.893915
 477359.2314 1170.878649 9933.001764
 477382.2454 762.8607131 8802.335119
 477413.9236 520.6704378 6895.341694
 477443.7643 298.7617858 4385.659861
 477461.6226 95.71592071 1503.682213
 477461.6227 -95.71580331 -1503.665258
 477443.7644 -298.7616274 -4385.642915
 477413.9239 -520.6703605 -6895.324731
 477382.2457 -762.8605792 -8802.318176
 477359.2318 -1170.87858 -9932.984827
 477359.2314 -1170.878649 9933.001763
 477382.2454 -762.8607131 8802.335121
 477413.9236 -520.6704378 6895.341691
 477443.7643 -298.7617858 4385.659865
 477461.6226 -95.71592068 1503.682209
 477461.6227 95.7158033 -1503.665254
 477443.7644 298.7616274 -4385.642919
 477413.9239 520.6703605 -6895.324728
 477382.2457 762.8605792 -8802.318177
 477359.2318 1170.87858 -9932.984826
 477353.745 -3064.627116 9791.910799
 477383.1317 -2228.138842 8500.134558
 477414.4203 -1684.236341 6671.274974
 477444.2361 -943.9056895 4240.491825
 477461.6963 -297.0909119 1453.129377
 477461.6964 297.0905199 -1453.112412
 477444.2362 943.9053484 -4240.474834
 477414.4206 1684.235964 -6671.258021
 477383.132 2228.138562 -8500.117583
 477353.7453 3064.626901 -9791.893915
 0 0 0
 477375.7143 -5028.455811 7682.01069
 477411.2341 -3388.372297 6237.289689
 477444.7836 -1670.22935 3944.651596
 477461.8167 -515.2626359 1348.848216
 477461.8168 515.2620369 -1348.831197
 477444.7837 1670.228744 -3944.634609
 477411.2343 3388.371771 -6237.272667
 477375.7146 5028.455282 -7681.993656
 0 0 0
 0 0 0
 477326.5329 -8873.751278 7246.298285
 477402.1654 -4950.125154 5877.077126
 477446.2982 -2209.95472 3466.9482
 477461.9348 -760.3976523 1180.632092
 477461.9349 760.3968607 -1180.615037
 477446.2983 2209.953969 -3466.93113
 477402.1656 4950.12447 -5877.060149
 477326.5332 8873.750645 -7246.281261
 0 0 0
 0 0 0
 0 0 0
 0 0 0
 477447.731 -3118.988104 2409.849437
 477461.6264 -1182.242394 932.1470804
 477461.6265 1182.241493 -932.1299714
 477447.7311 3118.987205 -2409.832279
 0 0 0
 0 0 0
 0 0 0
 0 0 0
 0 0 0
 0 0 0
 477449.2895 3201.709549 1948.415005
 477461.8609 1214.385369 753.6510649
 477461.8609 -1214.384498 -753.6330038
 477449.2896 -3201.708686 -1948.396885
 0 0 0
 0 0 0
 0 0 0
 0 0 0
 477342.0979 9056.453586 5862.893185
 477413.0856 5100.133484 4754.537706
 477450.2052 2304.297271 2804.111039
 477462.3861 793.3813357 954.8204795
 477462.3862 -793.3805808 -954.8024596
 477450.2053 -2304.296529 -2804.09304
 477413.0858 -5100.13284 -4754.519767
 477342.0981 -9056.452968 -5862.875224
 0 0 0
 0 0 0
 477395.4644 5179.332488 6214.208011
 477424.4165 3513.087703 5045.398785
 477450.1282 1750.791518 3190.780723
 477462.4444 543.1477719 1091.070572
 477462.4445 -543.1471799 -1091.052614
 477450.1283 -1750.790971 -3190.762746
 477424.4167 -3513.087156 -5045.380851
 477395.4646 -5179.331999 -6214.190012
 0 0 0
 477387.9304 3145.177071 7921.049999
 477408.8461 2322.068475 6875.53292
 477430.2424 1764.741096 5396.35645
 477450.6362 996.7323864 3430.41833
 477462.4485 315.4087267 1175.625212
 477462.4485 -315.4083703 -1175.607279
 477450.6364 -996.732004 -3430.40042
 477430.2426 -1764.740797 -5396.338513
 477408.8464 -2322.068159 -6875.515025
 477387.9307 -3145.176875 -7921.032175
 477394.8779 1202.223474 8034.704624
 477410.2511 795.5494943 7119.72865
 477431.1049 548.4912068 5577.67882
 477450.7112 317.070443 3548.1171
 477462.439 102.0706737 1216.659734
 477462.439 -102.0705363 -1216.64183
 477450.7113 -317.070354 -3548.099187
 477431.1051 -548.4910552 -5577.660923
 477410.2514 -795.5494253 -7119.710754
 477394.8782 -1202.223386 -8034.686752
 477394.8779 -1202.223474 8034.704623
 477410.2511 -795.5494943 7119.728651
 477431.1049 -548.4912068 5577.678817
 477450.7112 -317.070443 3548.117103
 477462.439 -102.0706737 1216.659731
 477462.439 102.0705363 -1216.641826
 477450.7113 317.070354 -3548.09919
 477431.1051 548.4910552 -5577.660921
 477410.2514 795.5494253 -7119.710755
 477394.8782 1202.223386 -8034.686752
 477387.9304 -3145.177071 7921.049999
 477408.8461 -2322.068475 6875.532918
 477430.2424 -1764.741096 5396.356452
 477450.6362 -996.7323864 3430.418328
 477462.4485 -315.4087267 1175.625215
 477462.4485 315.4083703 -1175.607282
 477450.6364 996.732004 -3430.400417
 477430.2426 1764.740797 -5396.338515
 477408.8464 2322.068159 -6875.515024
 477387.9307 3145.176875 -7921.032175
 0 0 0
 477395.4644 -5179.332488 6214.208011
 477424.4165 -3513.087703 5045.398784
 477450.1282 -1750.791518 3190.780725
 477462.4444 -543.1477719 1091.070569
 477462.4445 543.1471799 -1091.052611
 477450.1283 1750.790971 -3190.762748
 477424.4167 3513.087156 -5045.380849
 477395.4646 5179.331999 -6214.190013
 0 0 0
 0 0 0
 477342.0979 -9056.453586 5862.893185
 477413.0856 -5100.133484 4754.537707
 477450.2052 -2304.297271 2804.111038
 477462.3861 -793.3813357 954.8204809
 477462.3862 793.3805808 -954.802461
 477450.2053 2304.296529 -2804.093038
 477413.0858 5100.13284 -4754.519768
 477342.0981 9056.452968 -5862.875224
 0 0 0
 0 0 0
 0 0 0
 0 0 0
 477449.2895 -3201.709549 1948.415006
 477461.8609 -1214.385369 753.6510645
 477461.8609 1214.384498 -753.6330033
 477449.2896 3201.708686 -1948.396885
 0 0 0
 0 0 0
 0 0 0
 0 0 0
 0 0 0
 0 0 0
 477450.2236 3266.113012 1577.263388
 477462.0016 1239.429389 610.0632668
 477462.0016 -1239.428548 -610.044247
 477450.2237 -3266.112173 -1577.244312
 0 0 0
 0 0 0
 0 0 0
 0 0 0
 477351.769 9198.728397 4747.985616
 477419.9742 5217.209157 3849.713451
 477452.6819 2378.020428 2269.995613
 477462.6717 819.1820415 772.8694064
 477462.6718 -819.1813033 -772.8504393
 477452.682 -2378.019727 -2269.976644
 477419.9743 -5217.208519 -3849.694578
 477351.7692 -9198.727805 -4747.966703
 0 0 0
 0 0 0
 477408.1054 5297.039414 5031.255066
 477432.8776 3610.645236 4084.353801
 477453.5692 1813.978489 2582.647891
 477462.849 565.0552476 883.062716