# OOMMF OVF 2.0
#
# Segment count: 1
#
# Begin: Segment
# Begin: Header
#
# Title: Oxs_MinDriver::Magnetization
# Desc: Oxs vector field output
# Desc:  MIF source file: F:/Bogdan/UNIC/2022/Master_degree/Simulation_samples/Cylinder0_5000.mif
# Desc:  Iteration: 1883, State id: 15080
# Desc:  Stage: 3, Stage iteration: 781
# Desc:  Stage simulation time: 0 s
# Desc:  Total simulation time: -2 s
# meshunit: m
# meshtype: rectangular
# xbase: -8.9999999999999995e-09
# ybase: -8.9999999999999995e-09
# zbase: -8.6999999999999998e-08
# xnodes: 10
# ynodes: 10
# znodes: 88
# xstepsize: 2.0000000000000001e-09
# ystepsize: 2.0000000000000001e-09
# zstepsize: 2.0000000000000001e-09
# xmin: -1e-08
# ymin: -1e-08
# zmin: -8.7999999999999994e-08
# xmax: 1e-08
# ymax: 1e-08
# zmax: 8.800000000000002e-08
# valuedim: 3
# valuelabels: Magnetization_x Magnetization_y Magnetization_z
# valueunits: A/m A/m A/m
#
# End: Header
#
# Begin: Data Text
 0 0 0
 0 0 0
 0 0 0
 477352.6805 2190.630909 10074.26914
 477448.1891 834.6333566 3794.918943
 477448.1895 -834.6426428 -3794.860902
 477352.6816 -2190.640104 -10074.21087
 0 0 0
 0 0 0
 0 0 0
 0 0 0
 476559.3518 6554.966532 28637.17726
 476911.5029 3539.276367 22688.39305
 477273.7075 1504.904317 13394.57853
 477442.3291 524.6039515 4518.677676
 477442.3297 -524.6124019 -4518.619088
 477273.7091 -1504.912321 -13394.5197
 476911.5057 -3539.283321 -22688.33315
 476559.3554 -6554.972933 -28637.1164
 0 0 0
 0 0 0
 476512.3277 3582.381256 29917.20909
 476881.4809 2416.12003 23453.93053
 477242.0723 1174.005962 14508.52805
 477438.7086 362.0597888 4900.995967
 477438.7092 -362.0665331 -4900.938207
 477242.0741 -1174.0124 -14508.46982
 476881.4838 -2416.125936 -23453.87099
 476512.3314 -3582.386628 -29917.1486
 0 0 0
 475900.3869 2188.321624 38547.42947
 476361.5907 1527.040115 32390.96132
 476836.3569 1186.09116 24444.90088
 477224.4746 669.8725995 15107.06469
 477436.6835 211.7839446 5102.911096
 477436.6841 -211.7885791 -5102.854076
 477224.4764 -669.8770322 -15107.0071
 476836.36 -1186.095173 -24444.84169
 476361.5947 -1527.043529 -32390.9014
 475900.3917 -2188.324009 -38547.36916
 475874.1038 834.0771638 38923.16709
 476315.8308 529.5740661 33088.06693
 476814.8797 366.8094204 24885.88501
 477216.4674 213.0901507 15371.04718
 477435.7692 68.73038463 5191.61535
 477435.7698 -68.73236582 -5191.559299
 477216.4693 -213.0921063 -15370.98989
 476814.8827 -366.8112192 -24885.82664
 476315.8349 -529.5756475 -33088.00787
 475874.1087 -834.0784917 -38923.10719
 475874.1038 -834.0777427 38923.16708
 476315.8308 -529.574646 33088.06693
 476814.8797 -366.8100015 24885.885
 477216.4674 -213.0907327 15371.04718
 477435.7692 -68.73096723 5191.615339
 477435.7698 68.7317832 -5191.559299
 477216.4693 213.0915242 -15370.9899
 476814.8827 366.8106381 -24885.82664
 476315.8349 529.5750675 -33088.00787
 475874.1087 834.0779126 -38923.10719
 475900.3869 -2188.322199 38547.42946
 476361.5907 -1527.040693 32390.9613
 476836.3569 -1186.09174 24444.90087
 477224.4746 -669.8731801 15107.06467
 477436.6835 -211.7845256 5102.911086
 477436.6841 211.7879981 -5102.854097
 477224.4764 669.8764516 -15107.00712
 476836.36 1186.094594 -24444.84171
 476361.5947 1527.042951 -32390.90141
 475900.3917 2188.323433 -38547.36916
 0 0 0
 476512.3277 -3582.381836 29917.20908
 476881.4809 -2416.120607 23453.93051
 477242.0723 -1174.00654 14508.52803
 477438.7086 -362.060367 4900.995939
 477438.7092 362.0659549 -4900.938227
 477242.0741 1174.011822 -14508.46985
 476881.4838 2416.125358 -23453.87101
 476512.3315 3582.386048 -29917.14862
 0 0 0
 0 0 0
 476559.3518 -6554.967107 28637.17723
 476911.5029 -3539.276939 22688.39303
 477273.7075 -1504.904892 13394.5785
 477442.3291 -524.6045265 4518.677649
 477442.3297 524.611827 -4518.619119
 477273.7091 1504.911746 -13394.51972
 476911.5057 3539.282748 -22688.33317
 476559.3554 6554.972358 -28637.11642
 0 0 0
 0 0 0
 0 0 0
 0 0 0
 477352.6804 -2190.631484 10074.26911
 477448.1891 -834.6339289 3794.918911
 477448.1895 834.6420705 -3794.860933
 477352.6816 2190.639528 -10074.2109
 0 0 0
 0 0 0
 0 0 0
 0 0 0
 0 0 0
 0 0 0
 477376.1006 2293.339911 8869.637141
 477451.0633 870.2572098 3405.298246
 477451.0638 -870.2658565 -3405.238767
 477376.1017 -2293.348502 -8869.577364
 0 0 0
 0 0 0
 0 0 0
 0 0 0
 476710.5815 6967.876464 25890.95385
 476998.8027 3593.881354 20762.8884
 477304.8583 1440.268071 12242.10765
 477445.6823 504.4585039 4151.776142
 477445.6828 -504.4662985 -4151.716335
 477304.8598 -1440.275493 -12242.04763
 476998.8053 -3593.887901 -20762.82742
 476710.5848 -6967.882532 -25890.89186
 0 0 0
 0 0 0
 476674.2565 3655.593065 27205.90324
 476965.4879 2397.729271 21680.53351
 477271.5685 1112.460571 13508.64905
 477441.9173 336.3350571 4579.717486
 477441.9178 -336.3412292 -4579.658658
 477271.5702 -1112.466537 -13508.58979
 476965.4906 -2397.734724 -21680.47305
 476674.2599 -3655.598123 -27205.84171
 0 0 0
 476178.4228 2268.391142 34940.45503
 476531.484 1461.688688 29790.59471
 476918.2664 1125.839636 22794.09884
 477252.5456 623.9402674 14194.70851
 477439.7234 194.4922191 4810.819602
 477439.724 -194.4964863 -4810.761491
 477252.5473 -623.9442994 -14194.64988
 476918.2693 -1125.843404 -22794.03888
 476531.4878 -1461.691891 -29790.53408
 476178.4272 -2268.39345 -34940.39408
 476152.9541 867.6029613 35348.0253
 476481.6484 509.2598042 30608.01616
 476894.4347 341.6594166 23312.07193
 477243.705 196.0111163 14500.99715
 477438.7172 62.67287255 4913.110291
 477438.7178 -62.67468712 -4913.053009
 477243.7068 -196.0129898 -14500.93885
 476894.4376 -341.6610442 -23312.01264
 476481.6523 -509.2612979 -30607.95647
 476152.9586 -867.6042343 -35347.96475
 476152.9541 -867.6035126 35348.02529
 476481.6484 -509.2603563 30608.01615
 476894.4347 -341.6599698 23312.07193
 477243.705 -196.0116702 14500.99713
 477438.7172 -62.67342691 4913.110301
 477438.7178 62.67413275 -4913.053032
 477243.7068 196.0124359 -14500.93884
 476894.4376 341.660491 -23312.01266
 476481.6523 509.2607457 -30607.95647
 476152.9586 867.6036829 -35347.96475
 476178.4228 -2268.39169 34940.45502
 476531.484 -1461.689239 29790.5947
 476918.2664 -1125.840188 22794.09882
 477252.5456 -623.9408198 14194.7085
 477439.7234 -194.4927719 4810.819569
 477439.724 194.4959335 -4810.761495
 477252.5473 623.9437469 -14194.64991
 476918.2693 1125.842852 -22794.03889
 476531.4878 1461.69134 -29790.5341
 476178.4272 2268.392902 -34940.39409
 0 0 0
 476674.2564 -3655.593617 27205.90322
 476965.4879 -2397.72982 21680.53349
 477271.5685 -1112.461121 13508.64901
 477441.9173 -336.3356071 4579.717468
 477441.9178 336.3406791 -4579.658698
 477271.5702 1112.465987 -13508.5898
 476965.4906 2397.734174 -21680.47308
 476674.2599 3655.597571 -27205.84173
 0 0 0
 0 0 0
 476710.5815 -6967.877011 25890.95382
 476998.8027 -3593.881899 20762.88837
 477304.8583 -1440.268618 12242.10761
 477445.6823 -504.4590508 4151.776098
 477445.6828 504.4657516 -4151.716365
 477304.8598 1440.274946 -12242.04767
 476998.8053 3593.887356 -20762.82745
 476710.5848 6967.881985 -25890.89189
 0 0 0
 0 0 0
 0 0 0
 0 0 0
 477376.1006 -2293.340459 8869.637098
 477451.0633 -870.2577543 3405.298207
 477451.0638 870.265312 -3405.23881
 477376.1017 2293.347954 -8869.577404
 0 0 0
 0 0 0
 0 0 0
 0 0 0
 0 0 0
 0 0 0
 477397.7204 2467.252245 7563.103518
 477454.1595 933.60802 2919.794748
 477454.1599 -933.6155592 -2919.733665
 477397.7213 -2467.259756 -7563.042076
 0 0 0
 0 0 0
 0 0 0
 0 0 0
 476879.0072 7443.954786 22424.79278
 477105.4386 3845.994984 18096.41167
 477342.2986 1542.178302 10668.78469
 477449.9291 533.4433371 3626.566319
 477449.9295 -533.4500775 -3626.504933
 477342.2999 -1542.184772 -10668.72328
 477105.4409 -3846.00071 -18096.34935
 476879.0101 -7443.960178 -22424.72962
 0 0 0
 0 0 0
 476860.7901 3915.678425 23671.19726
 477077.2828 2534.251686 19045.08077
 477313.1934 1156.357521 11943.59796
 477446.5858 344.779611 4063.269796
 477446.5863 -344.7849141 -4063.209553
 477313.1949 -1156.362606 -11943.5372
 477077.2852 -2534.256475 -19045.01921
 476860.7932 -3915.68285 -23671.13455
 0 0 0
 476494.9881 2429.469704 30306.68763
 476748.9376 1562.576051 26074.51123
 477035.916 1170.280375 20180.10488
 477295.4741 634.2931832 12668.83446
 477444.4994 194.8414436 4310.843169
 477444.4999 -194.8450709 -4310.783387
 477295.4757 -634.2967232 -12668.77453
 477035.9185 -1170.283596 -20180.04365
 476748.941 -1562.578859 -26074.44982
 476494.992 -2429.471779 -30306.62599
 476474.8571 927.8160647 30703.76196
 476705.4419 537.5636971 26898.03019
 477013.5323 350.3153104 20732.54936
 477286.8639 196.4742022 13003.16301
 477443.505 61.97415088 4423.46069
 477443.5055 -61.97574951 -4423.401587
 477286.8655 -196.4757667 -13003.10316
 477013.5349 -350.3167817 -20732.48902
 476705.4453 -537.5650121 -26897.96964
 476474.861 -927.8172036 -30703.70078
 476474.8571 -927.8165607 30703.76195
 476705.4419 -537.5641941 26898.03019
 477013.5323 -350.3158081 20732.54934
 477286.8639 -196.4747007 13003.16303
 477443.505 -61.97464962 4423.460657
 477443.5055 61.97525075 -4423.40157
 477286.8655 196.4752682 -13003.10319
 477013.5349 350.3162839 -20732.48901
 476705.4453 537.5645151 -26897.96966
 476474.861 927.8167075 -30703.70078
 476494.9881 -2429.470197 30306.68762
 476748.9376 -1562.576547 26074.5112
 477035.9159 -1170.280871 20180.10487
 477295.4741 -634.2936802 12668.83441
 477444.4994 -194.841941 4310.843168
 477444.4999 194.8445735 -4310.783433
 477295.4757 634.2962261 -12668.77453
 477035.9185 1170.283099 -20180.04369
 476748.941 1562.578363 -26074.44983
 476494.992 2429.471287 -30306.626
 0 0 0
 476860.7901 -3915.678922 23671.19723
 477077.2828 -2534.252181 19045.08073
 477313.1934 -1156.358016 11943.59794
 477446.5858 -344.7801058 4063.269741
 477446.5863 344.7844192 -4063.209573
 477313.1949 1156.362112 -11943.53725
 477077.2852 2534.25598 -19045.01923
 476860.7932 3915.682353 -23671.13459
 0 0 0
 0 0 0
 476879.0072 -7443.955278 22424.79274
 477105.4386 -3845.995474 18096.41163
 477342.2986 -1542.178794 10668.78463
 477449.9291 -533.4438293 3626.566282
 477449.9295 533.4495853 -3626.504991
 477342.2999 1542.184279 -10668.72332
 477105.4409 3846.00022 -18096.3494
 476879.0101 7443.959685 -22424.72966
 0 0 0
 0 0 0
 0 0 0
 0 0 0
 477397.7204 -2467.252738 7563.103466
 477454.1595 -933.6085102 2919.79469
 477454.1599 933.615069 -2919.733716
 477397.7213 2467.259263 -7563.042132
 0 0 0
 0 0 0
 0 0 0
 0 0 0
 0 0 0
 0 0 0
 477414.4328 2664.787649 6342.680272
 477456.639 1007.82544 2452.233424
 477456.6393 -1007.831566 -2452.171572
 477414.4336 -2664.793762 -6342.618117
 0 0 0
 0 0 0
 0 0 0
 0 0 0
 477021.4282 7915.832967 18967.54894
 477198.884 4175.683351 15351.22519
 477375.0953 1724.072916 9050.812672
 477453.7022 592.3780352 3079.392213
 477453.7026 -592.3834949 -3079.330086
 477375.0965 -1724.078143 -9050.750479
 477198.8859 -4175.688025 -15351.16228
 477021.4307 -7915.837391 -18967.48527
 0 0 0
 0 0 0
 477022.9009 4249.652556 20073.95821
 477180.0438 2766.133274 16230.3911
 477352.8881 1279.951231 10220.23483
 477451.1264 382.789025 3485.209745
 477451.1268 -382.7932182 -3485.148298
 477352.8895 -1279.955353 -10220.17334
 477180.0459 -2766.137129 -16230.32866
 477022.9035 -4249.656155 -20073.89506
 0 0 0
 476767.1715 2619.371827 25652.95972
 476945.5752 1743.732326 22175.41391
 477149.3448 1294.096935 17282.92179
 477338.7659 699.827191 10912.56743
 477449.4229 214.7034077 3724.757386
 477449.4233 -214.706306 -3724.696181
 477338.7673 -699.8299693 -10912.50605
 477149.347 -1294.099556 -17282.85991
 476945.5781 -1743.734615 -22175.35197
 476767.1748 -2619.373524 -25652.8979
 476754.0194 999.6865733 26009.16965
 476912.9077 595.9178203 22925.85089
 477131.5475 388.3822445 17810.30157
 477331.6159 216.387517 11240.68218
 477448.5801 67.98028584 3836.669852
 477448.5806 -67.98152445 -3836.608742
 477331.6173 -216.3888339 -11240.62089
 477131.5498 -388.3834227 -17810.24008
 476912.9106 -595.9188658 -22925.78991
 476754.0227 -999.6875343 -26009.10831
 476754.0194 -999.6869893 26009.16964
 476912.9077 -595.9182371 22925.85087
 477131.5475 -388.3826623 17810.30158
 477331.6159 -216.3879352 11240.68214
 477448.5801 -67.98070436 3836.669874
 477448.5806 67.98110594 -3836.608783
 477331.6173 216.3884157 -11240.62087
 477131.5498 388.3830049 -17810.24011
 476912.9106 595.9184489 -22925.7899
 476754.0227 999.6871183 -26009.10832
 476767.1715 -2619.37224 25652.9597
 476945.5752 -1743.732742 22175.41389
 477149.3448 -1294.097352 17282.92174
 477338.7659 -699.8276082 10912.56743
 477449.4229 -214.7038249 3724.757329
 477449.4233 214.7058887 -3724.696182
 477338.7673 699.8295521 -10912.5061
 477149.347 1294.09914 -17282.85992
 476945.5781 1743.734199 -22175.352
 476767.1748 2619.373111 -25652.89792
 0 0 0
 477022.9009 -4249.652973 20073.95816
 477180.0438 -2766.133689 16230.39107
 477352.8881 -1279.951646 10220.23476
 477451.1264 -382.7894404 3485.20972
 477451.1268 382.7928028 -3485.148366
 477352.8895 1279.954938 -10220.17337
 477180.0459 2766.136714 -16230.32871
 477022.9035 4249.655738 -20073.89509
 0 0 0
 0 0 0
 477021.4282 -7915.83338 18967.54889
 477198.884 -4175.683762 15351.22513
 477375.0953 -1724.073329 9050.812625
 477453.7022 -592.3784483 3079.39214
 477453.7026 592.3830818 -3079.330133
 477375.0965 1724.077729 -9050.750547
 477198.8859 4175.687614 -15351.16232
 477021.4307 7915.836978 -18967.48532
 0 0 0
 0 0 0
 0 0 0
 0 0 0
 477414.4328 -2664.788063 6342.680202
 477456.639 -1007.825852 2452.23336
 477456.6393 1007.831154 -2452.171644
 477414.4336 2664.793347 -6342.618182
 0 0 0
 0 0 0
 0 0 0
 0 0 0
 0 0 0
 0 0 0
 477426.4866 2853.529646 5261.038515
 477458.4418 1079.944748 2035.023829
 477458.4421 -1079.949161 -2034.962221
 477426.4873 -2853.534044 -5260.976607
 0 0 0
 0 0 0
 0 0 0
 0 0 0
 477129.2143 8345.378577 15809.45288
 477270.7952 4505.252254 12812.57278
 477400.3824 1920.867265 7553.573159
 477456.6236 658.9344712 2570.937407
 477456.6239 -658.9383787 -2570.875065
 477400.3833 -1920.871046 -7553.511031
 477270.7969 -4505.255631 -12812.50976
 477129.2164 -8345.38178 -15809.3893
 0 0 0
 0 0 0
 477147.9847 4582.217281 16753.36656
 477261.305 3020.63049 13579.17043
 477384.93 1431.61985 8570.318323
 477454.8343 432.7738411 2926.640397
 477454.8347 -432.7767996 -2926.578346
 477384.9311 -1431.622743 -8570.256074
 477261.3067 -3020.633268 -13579.10783
 477147.9869 -4582.219863 -16753.3032
 0 0 0
 476976.4647 2802.7925 21388.4961
 477100.246 1939.985837 18532.75552
 477241.595 1445.88086 14499.67882
 477374.9506 790.4730839 9187.109416
 477453.5988 244.4153886 3142.062238
 477453.5992 -244.4174017 -3141.999771
 477374.9518 -790.4750815 -9187.047209
 477241.5969 -1445.882731 -14499.61599
 477100.2484 -1939.987454 -18532.69338
 476976.4675 -2802.793739 -21388.43421
 476969.7283 1070.070229 21693.42219
 477078.104 662.0150425 19181.12809
 477229.109 438.3733286 14968.52228
 477369.7215 246.1239612 9484.711682
 477452.9694 77.71007721 3244.57601
 477452.9698 -77.71098148 -3244.513435
 477369.7227 -246.1248872 -9484.648933
 477229.1109 -438.3741725 -14968.45997
 477078.1065 -662.0158315 -19181.06657
 476969.7311 -1070.07093 -21693.36076
 476969.7283 -1070.070545 21693.42218
 477078.104 -662.015359 19181.12809
 477229.109 -438.3736455 14968.52225
 477369.7215 -246.1242787 9484.711701
 477452.9694 -77.71039471 3244.575965
 477452.9698 77.71066398 -3244.513413
 477369.7227 246.1245697 -9484.648974
 477229.1109 438.3738555 -14968.45996
 477078.1065 662.015515 -19181.06659
 476969.7311 1070.070615 -21693.36076
 476976.4647 -2802.792813 21388.49608
 477100.246 -1939.986152 18532.75548
 477241.595 -1445.881177 14499.67881
 477374.9506 -790.4734004 9187.109357
 477453.5988 -244.4157054 3142.062234
 477453.5992 244.4170849 -3141.999835
 477374.9518 790.474765 -9187.047215
 477241.5969 1445.882415 -14499.61604
 477100.2484 1939.987139 -18532.6934
 476976.4675 2802.793426 -21388.43423
 0 0 0
 477147.9847 -4582.217598 16753.36652
 477261.305 -3020.630805 13579.17037
 477384.93 -1431.620166 8570.318291
 477454.8343 -432.7741564 2926.640321
 477454.8347 432.7764844 -2926.578377
 477384.9311 1431.622428 -8570.256145
 477261.3067 3020.632953 -13579.10786
 477147.9869 4582.219547 -16753.30325
 0 0 0
 0 0 0
 477129.2143 -8345.378891 15809.45282
 477270.7952 -4505.252566 12812.57272
 477400.3824 -1920.867578 7553.573081
 477456.6236 -658.934785 2570.937352
 477456.6239 658.9380648 -2570.875148
 477400.3833 1920.870732 -7553.511087
 477270.7969 4505.255319 -12812.50983
 477129.2164 8345.381467 -15809.38936
 0 0 0
 0 0 0
 0 0 0
 0 0 0
 477426.4866 -2853.52996 5261.038438
 477458.4418 -1079.94506 2035.023745
 477458.4421 1079.948848 -2034.962297
 477426.4873 2853.533729 -5260.976688
 0 0 0
 0 0 0
 0 0 0
 0 0 0
 0 0 0
 0 0 0
 477434.81 3018.453941 4331.560214
 477459.6896 1143.519719 1675.844761
 477459.6898 -1143.522267 -1675.783314
 477434.8106 -3018.456505 -4331.498574
 0 0 0
 0 0 0
 0 0 0
 0 0 0
 477205.9532 8714.205656 13054.20042
 477322.5051 4799.185845 10586.08552
 477418.5978 2101.662611 6239.935512
 477458.7305 721.2126349 2124.101214
 477458.7308 -721.2149057 -2124.038724
 477418.5986 -2101.664798 -6239.873027
 477322.5065 -4799.187884 -10586.02217
 477205.9549 -8714.207572 -13054.13638
 0 0 0
 0 0 0
 477238.3969 4878.422841 13841.41549
 477320.7407 3257.101993 11232.678
 477408.631 1578.954968 7097.691102
 477457.5949 482.6557946 2425.56873
 477457.5952 -482.6574283 -2425.505869
 477408.632 -1578.956653 -7097.628216
 477320.7422 -3257.103612 -11232.61452
 477238.3988 -4878.424362 -13841.35151
 0 0 0
 477127.9983 2963.587926 17662.43631
 477213.3988 2120.306285 15321.47501
 477310.2391 1593.266901 12011.17893
 477402.2947 883.052148 7624.994396
 477456.7824 275.6931695 2610.797567
 477456.7827 -275.6943365 -2610.733901
 477402.2957 -883.0532722 -7624.930825
 477310.2407 -1593.268031 -12011.11518
 477213.4008 -2120.307239 -15321.41176
 477128.0006 -2963.588679 -17662.37344
 477126.3712 1132.25568 17916.89775
 477199.7688 723.891568 15865.93651
 477302.4155 488.2305517 12411.16673
 477398.8561 277.4115669 7882.040769
 477456.3582 88.27275748 2699.913328
 477456.3585 -88.27327134 -2699.849186
 477398.8571 -277.4121629 -7881.976596
 477302.4172 -488.2310565 -12411.10304
 477199.7709 -723.8920297 -15865.87382
 477126.3735 -1132.256138 -17916.83525
 477126.3712 -1132.255881 17916.89775
 477199.7688 -723.8917689 15865.93648
 477302.4155 -488.2307532 12411.16674
 477398.8561 -277.4117683 7882.040729
 477456.3582 -88.27295917 2699.913346
 477456.3585 88.27306965 -2699.84923
 477398.8571 277.4119614 -7881.976581
 477302.4172 488.230855 -12411.10308
 477199.7709 723.8918287 -15865.87382
 477126.3735 1132.255938 -17916.83527
 477127.9983 -2963.588125 17662.43629
 477213.3988 -2120.306486 15321.47499
 477310.2391 -1593.267102 12011.17888
 477402.2947 -883.0523492 7624.994384
 477456.7824 -275.6933706 2610.797503
 477456.7827 275.6941354 -2610.73391
 477402.2957 883.053071 -7624.930885
 477310.2407 1593.26783 -12011.11519
 477213.4008 2120.307038 -15321.4118
 477128.0006 2963.58848 -17662.37345
 0 0 0
 477238.3969 -4878.423042 13841.41543
 477320.7407 -3257.102194 11232.67795
 477408.631 -1578.955168 7097.691027
 477457.5949 -482.655995 2425.568692
 477457.5952 482.6572279 -2425.505948
 477408.632 1578.956453 -7097.628255
 477320.7422 3257.103412 -11232.61459
 477238.3988 4878.424161 -13841.35156
 0 0 0
 0 0 0
 477205.9532 -8714.205856 13054.20036
 477322.5051 -4799.186044 10586.08545
 477418.5978 -2101.662811 6239.935449
 477458.7305 -721.2128343 2124.101126
 477458.7308 721.2147063 -2124.038788
 477418.5986 2101.664599 -6239.87311
 477322.5065 4799.187685 -10586.02223
 477205.9549 8714.207372 -13054.13645
 0 0 0
 0 0 0
 0 0 0
 0 0 0
 477434.81 -3018.454141 4331.560125
 477459.6896 -1143.519918 1675.844678
 477459.6898 1143.522068 -1675.783405
 477434.8106 3018.456305 -4331.498658
 0 0 0
 0 0 0
 0 0 0
 0 0 0
 0 0 0
 0 0 0
 477440.3793 3155.527815 3549.389479
 477460.5254 1196.602921 1373.375173
 477460.5255 -1196.603947 -1373.313347
 477440.3797 -3155.528851 -3549.327437
 0 0 0
 0 0 0
 0 0 0
 0 0 0
 477258.5157 9018.891165 10716.34651
 477358.1983 5046.219625 8692.382236
 477431.1912 2255.558258 5122.635671
 477460.1872 774.6782747 1743.785625
 477460.1875 -774.6791775 -1743.72254
 477431.1919 -2255.559213 -5122.57243
 477358.1994 -5046.220582 -8692.317752
 477258.5172 -9018.89211 -10716.28118
 0 0 0
 0 0 0
 477301.1929 5127.178292 11364.61903
 477362.2794 3459.729596 9227.988319
 477425.2999 1707.848033 5834.174638
 477459.5435 526.8484828 1994.500139
 477459.5438 -526.8490897 -1994.436223
 477425.3007 -1707.848701 -5834.11056
 477362.2807 -3459.730377 -9227.923543
 477301.1945 -5127.179002 -11364.55354
 0 0 0
 477233.7628 3097.317277 14498.74311
 477292.7412 2273.745228 12583.34468
 477358.7811 1722.160933 9874.187847
 477421.7931 966.0532295 6274.513347
 477459.0638 304.1505605 2149.691196
 477459.0641 -304.1509987 -2149.626153
 477421.7939 -966.0537502 -6274.448287
 477358.7824 -1722.161444 -9874.122441
 477292.7429 -2273.745695 -12583.2796
 477233.7648 -3097.317659 -14498.67817
 477235.9348 1184.177716 14708.21257
 477285.443 776.9886467 13033.55205
 477354.5762 532.376533 10207.66816
 477419.7874 305.8692183 6490.324883
 477458.8066 98.0307146 2224.798875
 477458.8069 -98.03092951 -2224.733222
 477419.7883 -305.8694602 -6490.259091
 477354.5776 -532.3768013 -10207.6026
 477285.4448 -776.9888551 -13033.48736
 477235.9368 -1184.177946 -14708.14799
 477235.9348 -1184.177793 14708.21256
 477285.443 -776.9887243 13033.55205
 477354.5762 -532.3766103 10207.66813
 477419.7874 -305.8692957 6490.324892
 477458.8066 -98.03079177 2224.798838
 477458.8069 98.03085232 -2224.733211
 477419.7883 305.8693828 -6490.259124
 477354.5776 532.3767239 -10207.60259
 477285.4448 776.9887775 -13033.48738
 477235.9368 1184.177869 -14708.14799
 477233.7628 -3097.317354 14498.74309
 477292.7412 -2273.745305 12583.34465
 477358.7811 -1722.16101 9874.187826
 477421.7931 -966.0533067 6274.513292
 477459.0638 -304.1506378 2149.691179
 477459.0641 304.1509215 -2149.626212
 477421.7939 966.0536731 -6274.448306
 477358.7824 1722.161366 -9874.122489
 477292.7429 2273.745618 -12583.27963
 477233.7648 3097.317582 -14498.67819
 0 0 0
 477301.1929 -5127.17837 11364.61898
 477362.2794 -3459.729673 9227.988254
 477425.2999 -1707.84811 5834.174592
 477459.5435 -526.8485597 1994.500063
 477459.5438 526.8490127 -1994.436268
 477425.3007 1707.848623 -5834.110633
 477362.2807 3459.7303 -9227.923589
 477301.1945 5127.178925 -11364.5536
 0 0 0
 0 0 0
 477258.5157 -9018.891241 10716.34644
 477358.1983 -5046.219702 8692.382171
 477431.1912 -2255.558335 5122.635587
 477460.1872 -774.6783516 1743.785556
 477460.1874 774.6791006 -1743.722628
 477431.1919 2255.559136 -5122.572498
 477358.1994 5046.220506 -8692.317825
 477258.5172 9018.892033 -10716.28124
 0 0 0
 0 0 0
 0 0 0
 0 0 0
 477440.3793 -3155.527892 3549.389391
 477460.5254 -1196.602998 1373.37508
 477460.5255 1196.603871 -1373.313434
 477440.3797 3155.528773 -3549.327528
 0 0 0
 0 0 0
 0 0 0
 0 0 0
 0 0 0
 0 0 0
 477444.0165 3266.211065 2900.728128
 477461.0716 1239.572227 1122.442958
 477461.0717 -1239.572346 -1122.380298
 477444.0169 -3266.211205 -2900.665254
 0 0 0
 0 0 0
 0 0 0
 0 0 0
 477293.5807 9264.468212 8768.053401
 477382.1874 5247.015701 7112.476481
 477439.6701 2381.380909 4190.6739
 477461.1674 818.5705539 1426.475245
 477461.1676 -818.5706606 -1426.411241
 477439.6707 -2381.381107 -4190.609507
 477382.1883 -5247.016074 -7112.410545
 477293.5819 -9264.468635 -8767.986334
 0 0 0
 0 0 0
 477343.7037 5329.25929 9298.325937
 477390.5025 3626.002655 7551.91942
 477436.6686 1814.708293 4775.526489
 477460.8752 563.7191901 1632.830285
 477460.8755 -563.7191632 -1632.765223
 477436.6692 -1814.708407 -4775.46109
 477390.5036 -3626.002934 -7551.852996
 477343.705 -5329.259577 -9298.258662
 0 0 0
 477305.8767 3205.271021 11861.6038
 477346.9393 2399.131628 10296.36029
 477392.0743 1828.989002 8082.916048
 477435.2249 1035.734064 5138.540083
 477460.6397 328.223434 1761.003784
 477460.6399 -328.2234725 -1760.937597
 477435.2256 -1035.734159 -5138.473614
 477392.0754 -1828.989221 -8082.848882
 477346.9407 -2399.131797 -10296.29308
 477305.8783 -3205.271198 -11861.53644
 477310.7781 1226.170805 12032.82657
 477344.1558 820.5464539 10665.59561
 477390.5103 569.1883483 8357.511126
 477434.2812 329.9366071 5316.912461
 477460.5071 106.3510526 1823.213511
 477460.5074 -106.3510285 -1823.146831
 477434.282 -329.9366939 -5316.845253
 477390.5115 -569.1883821 -8357.443768
 477344.1573 -820.5465125 -10665.52869
 477310.7798 -1226.170885 -12032.75955
 477310.7781 -1226.170758 12032.82656
 477344.1558 -820.5464065 10665.59559
 477390.5103 -569.1883008 8357.511123
 477434.2812 -329.936559 5316.912437
 477460.5071 -106.3510044 1823.213512
 477460.5074 106.3510766 -1823.146856
 477434.282 329.936742 -5316.845254
 477390.5115 569.1884296 -8357.443789
 477344.1573 820.5465598 -10665.5287
 477310.7798 1226.170932 -12032.75956
 477305.8767 -3205.270975 11861.60378
 477346.9393 -2399.131581 10296.36026
 477392.0743 -1828.988954 8082.916007
 477435.2249 -1035.734016 5138.540057
 477460.6397 -328.2233859 1761.003735
 477460.6399 328.2235205 -1760.937622
 477435.2256 1035.734207 -5138.47366
 477392.0754 1828.989269 -8082.848908
 477346.9407 2399.131844 -10296.29312
 477305.8783 3205.271244 -11861.53646
 0 0 0
 477343.7037 -5329.259242 9298.325883
 477390.5025 -3626.002609 7551.919371
 477436.6686 -1814.708246 4775.526424
 477460.8752 -563.7191427 1632.830235
 477460.8755 563.7192107 -1632.765291
 477436.6692 1814.708455 -4775.46114
 477390.5036 3626.002981 -7551.853055
 477343.705 5329.259624 -9298.258711
 0 0 0
 0 0 0
 477293.5807 -9264.468166 8768.053338
 477382.1874 -5247.015654 7112.476412
 477439.6701 -2381.380862 4190.673829
 477461.1674 -818.5705067 1426.475163
 477461.1676 818.5707077 -1426.411313
 477439.6707 2381.381153 -4190.609586
 477382.1883 5247.016121 -7112.41061
 477293.5819 9264.468681 -8767.986399
 0 0 0
 0 0 0
 0 0 0
 0 0 0
 477444.0165 -3266.211018 2900.728039
 477461.0716 -1239.57218 1122.442871
 477461.0717 1239.572393 -1122.380388
 477444.0169 3266.211252 -2900.665341
 0 0 0
 0 0 0
 0 0 0
 0 0 0
 0 0 0
 0 0 0
 477446.3453 3354.130047 2368.211443
 477461.4216 1273.750239 916.397634
 477461.4217 -1273.749834 -916.3340956
 477446.3457 -3354.129677 -2368.14774
 0 0 0
 0 0 0
 0 0 0
 0 0 0
 477316.5313 9459.473564 7163.699852
 477398.0188 5407.160537 5810.812861
 477445.2781 2482.007593 3423.06774
 477461.8152 853.7449482 1165.108551
 477461.8153 -853.7445836 -1165.043582
 477445.2785 -2482.007349 -3423.002263
 477398.0196 -5407.160559 -5810.745634
 477316.5323 -9459.473672 -7163.631455
 0 0 0
 0 0 0
 477372.0003 5490.352327 7596.096522
 477409.3363 3759.241355 6169.686442
 477444.2753 1900.788973 3901.577523
 477461.7674 593.516964 1334.058564
 477461.7676 -593.5165658 -1333.992433
 477444.2758 -1900.78876 -3901.510924
 477409.3372 -3759.241322 -6169.618631
 477372.0014 -5490.352365 -7596.027728
 0 0 0
 477354.3184 3290.97511 9689.967252
 477383.3622 2499.35792 8411.301541
 477414.4879 1915.019935 6603.839689
 477444.2876 1092.229644 4198.879777
 477461.7044 347.8196179 1439.132523
 477461.7047 -347.8194019 -1439.06555
 477444.2882 -1092.229489 -4198.812062
 477414.4889 -1915.019953 -6603.771111
 477383.3634 -2499.357914 -8411.23264
 477354.3198 -3290.975157 -9689.898127
 477361.1485 1259.536253 9829.483171
 477383.7285 855.4257562 8712.937162
 477414.7921 598.9243287 6828.536807
 477444.1005 349.5243694 4345.113892
 477461.6611 113.153217 1490.190942
 477461.6613 -113.1530281 -1490.123721
 477444.1011 -349.5242982 -4345.045735
 477414.793 -598.9242199 -6828.467958
 477383.7298 -855.4256795 -8712.868504
 477361.1499 -1259.536214 -9829.414339
 477361.1485 -1259.536088 9829.483163
 477383.7285 -855.4255907 8712.937153
 477414.7921 -598.9241621 6828.536797
 477444.1005 -349.5242024 4345.113881
 477461.6611 -113.1530493 1490.19093
 477461.6613 113.1531958 -1490.123733
 477444.1011 349.5244653 -4345.045747
 477414.793 598.9243865 -6828.467969
 477383.7298 855.425845 -8712.868514
 477361.1499 1259.536379 -9829.414347
 477354.3184 -3290.974947 9689.967232
 477383.3622 -2499.357755 8411.301513
 477414.4879 -1915.019769 6603.839658
 477444.2876 -1092.229477 4198.879744
 477461.7044 -347.8194511 1439.132489
 477461.7047 347.8195688 -1439.065583
 477444.2882 1092.229656 -4198.812095
 477414.4889 1915.020119 -6603.771143
 477383.3634 2499.358079 -8411.232668
 477354.3198 3290.975321 -9689.898146
 0 0 0
 477372.0003 -5490.352161 7596.096474
 477409.3363 -3759.24119 6169.686393
 477444.2753 -1900.788808 3901.57747
 477461.7674 -593.5167978 1334.05851
 477461.7676 593.5167319 -1333.992487
 477444.2758 1900.788925 -3901.510977
 477409.3372 3759.241487 -6169.618681
 477372.0014 5490.352531 -7596.027776
 0 0 0
 0 0 0
 477316.5313 -9459.4734 7163.699793
 477398.0188 -5407.160373 5810.812799
 477445.2781 -2482.007428 3423.067671
 477461.8152 -853.7447834 1165.108481
 477461.8153 853.7447484 -1165.043653
 477445.2785 2482.007514 -3423.002331
 477398.0196 5407.160723 -5810.745696
 477316.5323 9459.473836 -7163.631513
 0 0 0
 0 0 0
 0 0 0
 0 0 0
 477446.3453 -3354.129881 2368.211362
 477461.4216 -1273.750074 916.3975528
 477461.4217 1273.749999 -916.3341768
 477446.3457 3354.129842 -2368.147821
 0 0 0
 0 0 0
 0 0 0
 0 0 0
 0 0 0
 0 0 0
 477447.8102 3423.362429 1934.025873
 477461.6419 1300.684347 748.3784877
 477461.642 -1300.683455 -748.3136069
 477447.8104 -3423.361577 -1933.960821
 0 0 0
 0 0 0
 0 0 0
 0 0 0
 477331.3351 9613.04633 5852.96175
 477408.332 5533.578936 4747.141961
 477448.942 2561.547739 2795.996883
 477462.2378 881.5771972 951.6015118
 477462.238 -881.5763831 -951.53521
 477448.9423 -2561.547106 -2795.930244
 477408.3327 -5533.578552 -4747.073463
 477331.336 -9613.046095 -5852.89227
 0 0 0
 0 0 0
 477390.6264 5617.467569 6205.254538
 477421.7599 3864.666451 5039.726625
 477449.3044 1969.085976 3186.806563