# OOMMF OVF 2.0
#
# Segment count: 1
#
# Begin: Segment
# Begin: Header
#
# Title: Oxs_MinDriver::Magnetization
# Desc: Oxs vector field output
# Desc:  MIF source file: F:/Bogdan/UNIC/2022/Master_degree/Simulation_samples/Cylinder0_5000.mif
# Desc:  Iteration: 1607, State id: 18896
# Desc:  Stage: 4, Stage iteration: 98
# Desc:  Stage simulation time: 0 s
# Desc:  Total simulation time: -2 s
# meshunit: m
# meshtype: rectangular
# xbase: -8.9999999999999995e-09
# ybase: -8.9999999999999995e-09
# zbase: -8.6999999999999998e-08
# xnodes: 10
# ynodes: 10
# znodes: 88
# xstepsize: 2.0000000000000001e-09
# ystepsize: 2.0000000000000001e-09
# zstepsize: 2.0000000000000001e-09
# xmin: -1e-08
# ymin: -1e-08
# zmin: -8.7999999999999994e-08
# xmax: 1e-08
# ymax: 1e-08
# zmax: 8.800000000000002e-08
# valuedim: 3
# valuelabels: Magnetization_x Magnetization_y Magnetization_z
# valueunits: A/m A/m A/m
#
# End: Header
#
# Begin: Data Text
 0 0 0
 0 0 0
 0 0 0
 477363.8468 2117.224859 9547.063484
 477449.817 806.0886416 3590.789116
 477449.8173 -806.0840412 -3590.748848
 477363.8476 -2117.220283 -9547.023067
 0 0 0
 0 0 0
 0 0 0
 0 0 0
 476656.6509 6368.366219 27013.92846
 476973.1858 3394.518564 21375.88691
 477294.8924 1419.887669 12626.99148
 477444.7531 495.610531 4258.328601
 477444.7535 -495.6065746 -4258.288615
 477294.8935 -1419.883822 -12626.95147
 476973.1876 -3394.515098 -21375.84703
 476656.6532 -6368.362934 -27013.88842
 0 0 0
 0 0 0
 476617.7899 3436.858633 28205.34841
 476948.1574 2300.057139 22068.89591
 477267.9418 1102.513432 13636.98936
 477441.6839 337.9156564 4603.86911
 477441.6843 -337.9126498 -4603.8294
 477267.943 -1102.510504 -13636.94964
 476948.1593 -2300.054373 -22068.85615
 476617.7923 -3436.855984 -28205.3085
 0 0 0
 476073.7537 2115.940912 36347.97226
 476486.8968 1441.831234 30496.38665
 476909.9692 1114.418023 22967.60021
 477253.1974 624.176571 14172.76447
 477439.996 196.2191193 4783.623095
 477439.9964 -196.2172494 -4783.583593
 477253.1986 -624.174745 -14172.72494
 476909.9711 -1114.4163 -22967.56065
 476486.8993 -1441.829672 -30496.34702
 476073.7568 -2115.93979 -36347.93267
 476050.9165 806.1144837 36698.04365
 476447.8837 500.6799792 31129.32247
 476892.0072 342.6209902 23361.66372
 477246.5672 197.5078876 14406.47033
 477439.2426 63.3971436 4861.781103
 477439.243 -63.39650716 -4861.741705
 477246.5684 -197.507271 -14406.43092
 476892.0092 -342.6204011 -23361.62425
 476447.8863 -500.6794533 -31129.28293
 476050.9195 -806.1140547 -36698.00402
 476050.9165 -806.1144821 36698.04365
 476447.8837 -500.6799776 31129.32247
 476892.0072 -342.6209886 23361.66372
 477246.5672 -197.507886 14406.47034
 477439.2426 -63.39714199 4861.781096
 477439.243 63.39650877 -4861.741698
 477246.5684 197.5072726 -14406.43092
 476892.0092 342.6204027 -23361.62425
 476447.8863 500.6794549 -31129.28294
 476050.9195 806.1140563 -36698.00402
 476073.7537 -2115.94091 36347.97226
 476486.8968 -1441.831233 30496.38665
 476909.9692 -1114.418021 22967.60021
 477253.1974 -624.1765694 14172.76446
 477439.996 -196.2191177 4783.623102
 477439.9964 196.217251 -4783.5836
 477253.1986 624.1747466 -14172.72493
 476909.9711 1114.416301 -22967.56065
 476486.8993 1441.829674 -30496.34701
 476073.7568 2115.939792 -36347.93267
 0 0 0
 476617.7899 -3436.858632 28205.34841
 476948.1574 -2300.057137 22068.89591
 477267.9418 -1102.51343 13636.98936
 477441.6839 -337.9156549 4603.869105
 477441.6843 337.9126514 -4603.829395
 477267.943 1102.510506 -13636.94965
 476948.1593 2300.054375 -22068.85615
 476617.7923 3436.855985 -28205.3085
 0 0 0
 0 0 0
 476656.6509 -6368.366217 27013.92846
 476973.1858 -3394.518562 21375.88691
 477294.8924 -1419.887667 12626.99148
 477444.7531 -495.6105294 4258.328604
 477444.7535 495.6065762 -4258.288618
 477294.8935 1419.883824 -12626.95147
 476973.1876 3394.515099 -21375.84703
 476656.6532 6368.362936 -27013.88842
 0 0 0
 0 0 0
 0 0 0
 0 0 0
 477363.8468 -2117.224857 9547.063485
 477449.817 -806.08864 3590.789115
 477449.8173 806.0840428 -3590.748847
 477363.8476 2117.220284 -9547.023068
 0 0 0
 0 0 0
 0 0 0
 0 0 0
 0 0 0
 0 0 0
 477385.6549 2223.255155 8358.526949
 477452.4836 842.9805787 3207.275406
 477452.4839 -842.9762447 -3207.233939
 477385.6556 -2223.250844 -8358.485323
 0 0 0
 0 0 0
 0 0 0
 0 0 0
 476796.3528 6786.557972 24311.55799
 477053.7286 3454.737098 19485.27944
 477323.6715 1359.057063 11495.07888
 477447.8471 476.7764768 3898.373848
 477447.8474 -476.7727038 -3898.332647
 477323.6726 -1359.053411 -11495.03765
 477053.7303 -3454.733833 -19485.23834
 476796.355 -6786.55489 -24311.51673
 0 0 0
 0 0 0
 476767.6115 3514.907342 25537.44898
 477025.5167 2285.885313 20329.84052
 477295.0277 1043.888567 12658.51982
 477444.6255 313.2231428 4289.84585
 477444.6259 -313.2202545 -4289.804936
 477295.0288 -1043.885756 -12658.47888
 477025.5185 -2285.882683 -20329.79953
 476767.6138 -3514.90483 -25537.40778
 0 0 0
 476331.1218 2200.623422 32797.72821
 476643.6682 1380.429849 27942.42756
 476985.1724 1057.075484 21351.79515
 477278.8694 580.1128344 13282.1527
 477442.7704 179.5785209 4498.898344
 477442.7707 -179.5767102 -4498.857641
 477278.8705 -580.1110851 -13282.11197
 476985.1743 -1057.073824 -21351.75433
 476643.6706 -1380.428377 -27942.38666
 476331.1246 -2200.622388 -32797.68735
 476309.1086 841.0757928 33178.26042
 476600.6522 481.7107774 28695.95037
 476964.9076 318.4916872 21823.0792
 477271.4234 181.0739919 13558.27934
 477441.927 57.56200451 4590.677488
 477441.9274 -57.56139442 -4590.636899
 477271.4245 -181.0733821 -13558.23871
 476964.9095 -318.4911361 -21823.0385
 476600.6547 -481.7102685 -28695.90955
 476309.1114 -841.0753956 -33178.2195
 476309.1086 -841.0757912 33178.26043
 476600.6522 -481.7107758 28695.95036
 476964.9076 -318.4916857 21823.07921
 477271.4234 -181.0739904 13558.27932
 477441.927 -57.56200295 4590.677509
 477441.9274 57.56139599 -4590.636919
 477271.4245 181.0733837 -13558.23869
 476964.9095 318.4911377 -21823.03851
 476600.6547 481.71027 -28695.90954
 476309.1114 841.0753972 -33178.2195
 476331.1218 -2200.623421 32797.7282
 476643.6682 -1380.429847 27942.42757
 476985.1724 -1057.075483 21351.79514
 477278.8694 -580.1128328 13282.15272
 477442.7704 -179.5785194 4498.898326
 477442.7707 179.5767117 -4498.857623
 477278.8705 580.1110866 -13282.11198
 476985.1743 1057.073826 -21351.75432
 476643.6706 1380.428378 -27942.38666
 476331.1246 2200.62239 -32797.68734
 0 0 0
 476767.6115 -3514.90734 25537.44897
 477025.5167 -2285.885312 20329.84053
 477295.0277 -1043.888566 12658.51981
 477444.6255 -313.2231413 4289.845864
 477444.6259 313.220256 -4289.80495
 477295.0288 1043.885758 -12658.47886
 477025.5185 2285.882685 -20329.79953
 476767.6138 3514.904831 -25537.40778
 0 0 0
 0 0 0
 476796.3528 -6786.55797 24311.558
 477053.7286 -3454.737096 19485.27943
 477323.6715 -1359.057062 11495.07888
 477447.8471 -476.7764752 3898.373839
 477447.8474 476.7727053 -3898.332639
 477323.6726 1359.053413 -11495.03766
 477053.7303 3454.733834 -19485.23833
 476796.355 6786.554892 -24311.51673
 0 0 0
 0 0 0
 0 0 0
 0 0 0
 477385.6549 -2223.255153 8358.526947
 477452.4836 -842.9805771 3207.275408
 477452.4839 842.9762463 -3207.233941
 477385.6556 2223.250846 -8358.485321
 0 0 0
 0 0 0
 0 0 0
 0 0 0
 0 0 0
 0 0 0
 477405.4449 2399.467598 7082.023869
 477455.3142 907.2218359 2733.350689
 477455.3144 -907.2178122 -2733.307304
 477405.4455 -2399.463599 -7081.980326
 0 0 0
 0 0 0
 0 0 0
 0 0 0
 476949.5044 7265.71238 20934.44516
 477150.7563 3710.389515 16889.64266
 477357.7969 1463.651609 9963.071964
 477451.7168 506.7480222 3387.122588
 477451.7171 -506.744504 -3387.079434
 477357.7978 -1463.648203 -9963.028788
 477150.7579 -3710.386492 -16889.59963
 476949.5063 -7265.709528 -20934.40196
 0 0 0
 0 0 0
 476937.5824 3778.321865 22093.84728
 477127.1712 2425.572208 17766.55271
 477332.8227 1090.121124 11138.19236
 477448.8605 322.5244407 3788.522007
 477448.8608 -322.5217227 -3788.47912
 477332.8237 -1090.118506 -11138.14944
 477127.1728 -2425.569744 -17766.50973
 476937.5844 -3778.319541 -22093.80411
 0 0 0
 476619.7602 2364.656032 28282.21899
 476841.645 1484.162525 24325.17557
 477091.9623 1103.877728 18812.55659
 477317.7346 592.0819097 11802.58497
 477447.088 180.507127 4014.581921
 477447.0884 -180.5054297 -4014.539235
 477317.7356 -592.0802399 -11802.54224
 477091.964 -1103.876199 -18812.51378
 476841.6472 -1484.161144 -24325.13267
 476619.7627 -2364.65509 -28282.17618
 476602.6725 902.3574323 28652.21794
 476804.229 511.0674599 25086.59609
 477072.8715 328.0154567 19319.39502
 477310.433 182.1162815 12107.37944
 477446.2474 57.0687839 4116.897626
 477446.2478 -57.068193 -4116.855052
 477310.4341 -182.1157401 -12107.33681
 477072.8732 -328.0149057 -19319.35231
 476804.2313 -511.0670104 -25086.55327
 476602.6751 -902.3570605 -28652.17503
 476602.6725 -902.3574308 28652.21794
 476804.229 -511.0674585 25086.5961
 477072.8715 -328.0154552 19319.395
 477310.433 -182.11628 12107.37946
 477446.2474 -57.06878242 4116.897598
 477446.2478 57.06819447 -4116.855024
 477310.4341 182.1157416 -12107.33684
 477072.8732 328.0149071 -19319.35229
 476804.2313 511.0670118 -25086.55328
 476602.6751 902.3570619 -28652.17502
 476619.7602 -2364.65603 28282.219
 476841.645 -1484.162524 24325.17556
 477091.9623 -1103.877726 18812.55661
 477317.7346 -592.0819083 11802.58494
 477447.088 -180.5071256 4014.581946
 477447.0884 180.5054311 -4014.53926
 477317.7356 592.0802414 -11802.54222
 477091.964 1103.876201 -18812.5138
 476841.6472 1484.161146 -24325.13266
 476619.7627 2364.655091 -28282.17618
 0 0 0
 476937.5824 -3778.321863 22093.84728
 477127.1712 -2425.572206 17766.5527
 477332.8227 -1090.121122 11138.19238
 477448.8605 -322.5244392 3788.521989
 477448.8608 322.5217241 -3788.479101
 477332.8237 1090.118507 -11138.14946
 477127.1728 2425.569746 -17766.50972
 476937.5844 3778.319542 -22093.80411
 0 0 0
 0 0 0
 476949.5044 -7265.712378 20934.44516
 477150.7563 -3710.389513 16889.64267
 477357.7969 -1463.651607 9963.071955
 477451.7168 -506.7480208 3387.122599
 477451.7171 506.7445055 -3387.079445
 477357.7978 1463.648204 -9963.028779
 477150.7579 3710.386493 -16889.59963
 476949.5063 7265.70953 -20934.40196
 0 0 0
 0 0 0
 0 0 0
 0 0 0
 477405.4449 -2399.467596 7082.023872
 477455.3142 -907.2218344 2733.350686
 477455.3144 907.2178137 -2733.3073
 477405.4455 2399.463601 -7081.980328
 0 0 0
 0 0 0
 0 0 0
 0 0 0
 0 0 0
 0 0 0
 477420.469 2597.486359 5900.861783
 477457.5424 981.6295089 2280.990013
 477457.5426 -981.6257761 -2280.944233
 477420.4696 -2597.482647 -5900.815846
 0 0 0
 0 0 0
 0 0 0
 0 0 0
 477076.8815 7737.113322 17597.08792
 477234.4836 4040.314464 14240.60509
 477387.2464 1646.065598 8401.116485
 477455.1055 565.9162952 2858.897963
 477455.1057 -565.9130213 -2858.852388
 477387.2472 -1646.062447 -8401.070886
 477234.485 -4040.311655 -14240.55965
 477076.8832 -7737.110687 -17597.04234
 0 0 0
 0 0 0
 477083.0113 4112.476341 18621.47164
 477219.2904 2657.944724 15051.76167
 477368.3926 1214.284877 9477.054145
 477452.9277 360.7787674 3231.555419
 477452.928 -360.7762467 -3231.51007
 477368.3935 -1214.282417 -9477.008783
 477219.2918 -2657.942463 -15051.71625
 477083.0131 -4112.474177 -18621.42604
 0 0 0
 476864.1194 2555.324042 23789.77228
 477018.0862 1665.939371 20563.1063
 477193.5769 1228.291291 16020.3849
 477356.4594 658.1091054 10111.81748
 477451.4883 200.5633789 3450.714472
 477451.4886 -200.5617758 -3450.669318
 477356.4604 -658.1075932 -10111.77226
 477193.5785 -1228.289826 -16020.33963
 477018.0882 -1665.938123 -20563.06095
 476864.1216 -2555.323168 -23789.72706
 476853.373 974.5101044 24120.1634
 476990.3202 569.6988917 21255.14568
 477178.5173 366.340179 16504.53499
 477350.4208 202.2257258 10411.82774
 477450.7774 63.14943876 3552.807527
 477450.7778 -63.14891063 -3552.762466
 477350.4218 -202.2251629 -10411.78264
 477178.5189 -366.3397277 -16504.4898
 476990.3222 -569.6984347 -21255.10041
 476853.3753 -974.5097757 -24120.11807
 476853.373 -974.5101031 24120.1634
 476990.3202 -569.6988904 21255.14567
 477178.5173 -366.3401776 16504.53501
 477350.4208 -202.2257245 10411.82772
 477450.7774 -63.14943743 3552.807556
 477450.7778 63.14891198 -3552.762495
 477350.4218 202.2251643 -10411.78262
 477178.5189 366.3397291 -16504.48982
 476990.3222 569.698436 -21255.1004
 476853.3753 974.5097771 -24120.11807
 476864.1194 -2555.324041 23789.77227
 477018.0862 -1665.93937 20563.10631
 477193.5769 -1228.29129 16020.38488
 477356.4594 -658.1091041 10111.8175
 477451.4883 -200.5633775 3450.714446
 477451.4886 200.5617771 -3450.669292
 477356.4604 658.1075945 -10111.77229
 477193.5785 1228.289828 -16020.33961
 477018.0882 1665.938125 -20563.06096
 476864.1216 2555.323169 -23789.72706
 0 0 0
 477083.0113 -4112.47634 18621.47163
 477219.2904 -2657.944723 15051.76169
 477368.3926 -1214.284876 9477.054128
 477452.9277 -360.7787661 3231.555438
 477452.928 360.776248 -3231.51009
 477368.3935 1214.282418 -9477.008766
 477219.2918 2657.942464 -15051.71626
 477083.0131 4112.474179 -18621.42604
 0 0 0
 0 0 0
 477076.8815 -7737.113321 17597.08793
 477234.4836 -4040.314463 14240.60508
 477387.2464 -1646.065597 8401.116495
 477455.1055 -565.9162938 2858.897951
 477455.1057 565.9130226 -2858.852376
 477387.2472 1646.062449 -8401.070895
 477234.485 4040.311657 -14240.55965
 477076.8832 7737.110688 -17597.04234
 0 0 0
 0 0 0
 0 0 0
 0 0 0
 477420.469 -2597.486358 5900.861781
 477457.5424 -981.6295076 2280.990017
 477457.5426 981.6257774 -2280.944237
 477420.4696 2597.482648 -5900.815844
 0 0 0
 0 0 0
 0 0 0
 0 0 0
 0 0 0
 0 0 0
 477431.1067 2785.20682 4863.359246
 477459.1334 1053.350215 1880.882407
 477459.1336 -1053.346729 -1880.833921
 477431.1072 -2785.203359 -4863.310596
 0 0 0
 0 0 0
 0 0 0
 0 0 0
 477171.659 8163.232377 14575.34969
 477297.8918 4367.422477 11811.83396
 477409.6016 1841.566606 6967.942467
 477457.689 632.0576172 2372.137054
 477457.6892 -632.054571 -2372.088743
 477409.6023 -1841.563652 -6967.894158
 477297.893 -4367.419873 -11811.78581
 477171.6605 -8163.229916 -14575.30141
 0 0 0
 0 0 0
 477193.4748 4442.538032 15444.1815
 477291.0553 2910.573538 12515.92394
 477396.6993 1364.91329 7899.352889
 477456.2034 410.4363077 2697.527921
 477456.2037 -410.4339397 -2697.479827
 477396.7001 -1364.911036 -7899.304758
 477291.0566 -2910.571393 -12515.8758
 477193.4764 -4442.536037 -15444.13318
 0 0 0
 477049.153 2737.835797 19709.92612
 477154.825 1860.943375 17078.67558
 477275.0697 1379.04889 13359.54256
 477388.4013 748.1541021 8463.207667
 477455.1729 230.0847541 2894.171911
 477455.1732 -230.0832848 -2894.123968
 477388.4021 -748.1526266 -8463.159712
 477275.071 -1379.047595 -13359.49453
 477154.8267 -1860.942168 -17078.62752
 477049.155 -2737.834997 -19709.87821
 477044.1664 1044.530116 19991.08612
 477136.3629 635.3998546 17673.67303
 477264.678 416.0108378 13788.59668
 477384.0384 231.7727892 8734.839581
 477454.6473 72.81849 2987.597102
 477454.6476 -72.81796241 -2987.549258
 477384.0393 -231.772348 -8734.79169
 477264.6794 -416.0103269 -13788.54874
 477136.3647 -635.3994927 -17673.62502
 477044.1684 -1044.52979 -19991.03809
 477044.1664 -1044.530115 19991.08612
 477136.3629 -635.3998535 17673.67304
 477264.678 -416.0108366 13788.59666
 477384.0384 -231.7727881 8734.839603
 477454.6473 -72.81848883 2987.597077
 477454.6476 72.81796356 -2987.549234
 477384.0393 231.7723492 -8734.791712
 477264.6794 416.010328 -13788.54872
 477136.3647 635.3994939 -17673.62503
 477044.1684 1044.529791 -19991.03808
 477049.153 -2737.835796 19709.92612
 477154.825 -1860.943373 17078.67557
 477275.0697 -1379.048889 13359.54258
 477388.4013 -748.1541009 8463.207648
 477455.1729 -230.0847529 2894.171933
 477455.1732 230.083286 -2894.12399
 477388.4021 748.1526278 -8463.159692
 477275.071 1379.047597 -13359.49454
 477154.8267 1860.942169 -17078.62751
 477049.155 2737.834998 -19709.87821
 0 0 0
 477193.4748 -4442.538031 15444.1815
 477291.0553 -2910.573537 12515.92393
 477396.6993 -1364.913289 7899.352903
 477456.2034 -410.4363065 2697.527905
 477456.2037 410.4339408 -2697.479811
 477396.7001 1364.911037 -7899.304772
 477291.0566 2910.571394 -12515.87579
 477193.4764 4442.536038 -15444.13318
 0 0 0
 0 0 0
 477171.659 -8163.232376 14575.34968
 477297.8918 -4367.422476 11811.83396
 477409.6016 -1841.566605 6967.942459
 477457.689 -632.0576161 2372.137064
 477457.6892 632.0545722 -2372.088753
 477409.6023 1841.563653 -6967.89415
 477297.893 4367.419874 -11811.78582
 477171.6605 8163.229917 -14575.30141
 0 0 0
 0 0 0
 0 0 0
 0 0 0
 477431.1067 -2785.206819 4863.359248
 477459.1334 -1053.350213 1880.882404
 477459.1336 1053.34673 -1880.833918
 477431.1072 2785.20336 -4863.310598
 0 0 0
 0 0 0
 0 0 0
 0 0 0
 0 0 0
 0 0 0
 477438.3145 2948.136943 3979.395207
 477460.214 1116.145164 1539.340632
 477460.2142 -1116.141889 -1539.289236
 477438.315 -2948.133684 -3979.343648
 0 0 0
 0 0 0
 0 0 0
 0 0 0
 477237.9823 8526.749304 11961.35895
 477342.7511 4657.176302 9699.484569
 477425.4522 2019.901941 5720.915111
 477459.523 693.4979571 1947.873306
 477459.5233 -693.4950851 -1947.822083
 477425.4528 -2019.89919 -5720.863868
 477342.7521 -4657.173837 -9699.433544
 477237.9836 -8526.747 -11961.30779
 0 0 0
 0 0 0
 477272.0798 4734.51436 12681.38464
 477342.7545 3143.637573 10289.97359
 477417.3324 1510.13816 6502.420224
 477458.6074 459.6059877 2222.229058
 477458.6076 -459.6037874 -2222.178009
 477417.3331 -1510.135991 -6502.369194
 477342.7556 -3143.635615 -10289.92251
 477272.0812 -4734.512461 -12681.33343
 0 0 0
 477181.1251 2896.679291 16175.7352
 477253.3922 2038.813146 14032.61051
 477334.8474 1524.327579 10999.59692
 477412.2075 839.3838736 6982.178296
 477457.9441 260.9033275 2390.57069
 477457.9444 -260.9019142 -2390.519805
 477412.2083 -839.3825759 -6982.127362
 477334.8486 -1524.326271 -10999.54598
 477253.3937 -2038.812077 -14032.55953
 477181.1268 -2896.678523 -16175.68443
 477180.6759 1105.945468 16408.86191
 477242.3745 696.4431279 14529.35831
 477328.5224 465.1573102 11363.82969
 477409.3991 262.6015462 7215.814564
 477457.5962 83.22411672 2471.481807
 477457.5964 -83.2236659 -2471.430992
 477409.3999 -262.6010243 -7215.763731
 477328.5236 -465.1569514 -11363.7788
 477242.376 -696.4427032 -14529.3074
 477180.6776 -1105.945191 -16408.811
 477180.6759 -1105.945467 16408.86192
 477242.3745 -696.443127 14529.3583
 477328.5224 -465.1573092 11363.8297
 477409.3991 -262.6015452 7215.814549
 477457.5962 -83.22411578 2471.481824
 477457.5964 83.22366687 -2471.431009
 477409.3999 262.6010253 -7215.763716
 477328.5236 465.1569524 -11363.77881
 477242.376 696.4427041 -14529.30739
 477180.6776 1105.945192 -16408.811
 477181.1251 -2896.67929 16175.7352
 477253.3922 -2038.813145 14032.61051
 477334.8474 -1524.327578 10999.59691
 477412.2075 -839.3838727 6982.178309
 477457.9441 -260.9033265 2390.570675
 477457.9444 260.9019151 -2390.51979
 477412.2083 839.3825769 -6982.127375
 477334.8486 1524.326272 -10999.54597
 477253.3937 2038.812078 -14032.55954
 477181.1268 2896.678523 -16175.68443
 0 0 0
 477272.0798 -4734.514359 12681.38464
 477342.7545 -3143.637572 10289.9736
 477417.3324 -1510.138159 6502.420214
 477458.6074 -459.6059868 2222.229069
 477458.6076 459.6037884 -2222.17802
 477417.3331 1510.135991 -6502.369184
 477342.7556 3143.635616 -10289.92252
 477272.0812 4734.512462 -12681.33343
 0 0 0
 0 0 0
 477237.9823 -8526.749303 11961.35895
 477342.7511 -4657.176301 9699.484566
 477425.4522 -2019.90194 5720.915116
 477459.523 -693.4979561 1947.873299
 477459.5233 693.495086 -1947.822076
 477425.4528 2019.899191 -5720.863874
 477342.7521 4657.173837 -9699.433541
 477237.9836 8526.747001 -11961.30779
 0 0 0
 0 0 0
 0 0 0
 0 0 0
 477438.3145 -2948.136942 3979.395206
 477460.214 -1116.145163 1539.340634
 477460.2142 1116.14189 -1539.289238
 477438.315 2948.133685 -3979.343647
 0 0 0
 0 0 0
 0 0 0
 0 0 0
 0 0 0
 0 0 0
 477443.0441 3082.709684 3241.582438
 477460.9239 1168.248931 1254.061321
 477460.924 -1168.245825 -1254.0069
 477443.0445 -3082.706603 -3241.527838
 0 0 0
 0 0 0
 0 0 0
 0 0 0
 477282.6228 8825.198628 9761.41178
 477373.213 4899.168682 7917.384225
 477436.2381 2170.738707 4668.800413
 477460.7711 745.9069852 1589.661896
 477460.7712 -745.9042811 -1589.607627
 477436.2387 -2170.736071 -4668.74617
 477373.2139 -4899.166373 -7917.330174
 477282.6239 -8825.196435 -9761.357625
 0 0 0
 0 0 0
 477325.8371 4978.176434 10350.57118
 477378.3432 3342.073718 8403.528815
 477431.631 1636.364064 5313.316155
 477460.2796 502.8834737 1816.527344
 477460.2798 -502.881366 -1816.473266
 477431.6316 -1636.362081 -5313.262049
 477378.3442 -3342.071796 -8403.474752
 477325.8383 -4978.174672 -10350.51695
 0 0 0
 477271.9062 3027.925296 13199.64126
 477321.5146 2189.187069 11456.45835
 477376.5215 1650.551581 8989.089784
 477428.9476 920.6356757 5711.717688
 477459.9028 288.7564703 1956.811222
 477459.903 -288.7551777 -1956.757268
 477428.9482 -920.6343448 -5711.663742
 477376.5225 -1650.550462 -8989.035784
 477321.5159 -2189.185978 -11456.4044
 477271.9077 -3027.924589 -13199.58751
 477274.7979 1156.890323 13390.30308
 477315.9744 748.4823486 11864.72321
 477373.3232 508.3869695 9291.026304
 477427.3728 290.4546101 5906.829693
 477459.6983 92.77239473 2024.655264
 477459.6985 -92.77191733 -2024.601391
 477427.3735 -290.4542469 -5906.775795
 477373.3242 -508.3864841 -9290.972394
 477315.9757 -748.482054 -11864.66928
 477274.7994 -1156.890024 -13390.24919
 477274.7979 -1156.890322 13390.30308
 477315.9744 -748.4823479 11864.72322
 477373.3232 -508.3869688 9291.026298
 477427.3728 -290.4546094 5906.829701
 477459.6983 -92.77239401 2024.655255
 477459.6985 92.77191803 -2024.601382
 477427.3735 290.4542476 -5906.775803
 477373.3242 508.3864848 -9290.972388
 477315.9757 748.4820547 -11864.66929
 477274.7994 1156.890025 -13390.24919
 477271.9062 -3027.925295 13199.64126
 477321.5146 -2189.187068 11456.45835
 477376.5215 -1650.551581 8989.08979
 477428.9476 -920.635675 5711.717681
 477459.9028 -288.7564696 1956.811231
 477459.903 288.7551784 -1956.757276
 477428.9482 920.6343455 -5711.663734
 477376.5225 1650.550463 -8989.035789
 477321.5159 2189.185979 -11456.40439
 477271.9077 3027.92459 -13199.58751
 0 0 0
 477325.8371 -4978.176433 10350.57119
 477378.3432 -3342.073717 8403.528812
 477431.631 -1636.364064 5313.31616
 477460.2796 -502.883473 1816.527337
 477460.2798 502.8813667 -1816.473259
 477431.6316 1636.362081 -5313.262054
 477378.3442 3342.071797 -8403.474749
 477325.8383 4978.174672 -10350.51695
 0 0 0
 0 0 0
 477282.6228 -8825.198627 9761.41178
 477373.213 -4899.168681 7917.384226
 477436.2381 -2170.738706 4668.80041
 477460.7711 -745.9069846 1589.661899
 477460.7712 745.9042819 -1589.60763
 477436.2387 2170.736072 -4668.746167
 477373.2139 4899.166374 -7917.330175
 477282.6239 8825.196435 -9761.357624
 0 0 0
 0 0 0
 0 0 0
 0 0 0
 477443.0441 -3082.709683 3241.582439
 477460.9239 -1168.24893 1254.06132
 477460.924 1168.245825 -1254.006899
 477443.0445 3082.706603 -3241.527839
 0 0 0
 0 0 0
 0 0 0
 0 0 0
 0 0 0
 0 0 0
 477446.0704 3190.718225 2634.479151
 477461.3785 1210.17101 1019.235231
 477461.3786 -1210.168054 -1019.177718
 477446.0707 -3190.715279 -2634.421462
 0 0 0
 0 0 0
 0 0 0
 0 0 0
 477311.8774 9064.309941 7942.372396
 477393.3534 5094.674962 6442.185701
 477443.3861 2293.308781 3798.039583
 477461.5976 788.6693493 1293.112411
 477461.5977 -788.6667574 -1293.055064
 477443.3866 -2293.306307 -3797.982229
 477393.3541 -5094.672731 -6442.12861
 477311.8784 -9064.307863 -7942.315174
 0 0 0
 0 0 0
 477361.6797 5174.919006 8421.299676
 477402.1652 3503.914342 6838.60444
 477441.2417 1740.37252 4324.71171
 477461.4061 538.7694747 1478.755923
 477461.4063 -538.7675011 -1478.698737
 477441.2422 -1740.370554 -4324.654556
 477402.1661 -3503.912594 -6838.547263
 477361.6807 -5174.917285 -8421.24239
 0 0 0
 477332.9447 3133.217282 10738.44444
 477367.4015 2311.310653 9321.645996
 477404.7085 1754.52294 7316.912972
 477440.3212 988.4285222 4651.238247
 477461.2373 312.1733689 1593.950864
 477461.2375 -312.1720926 -1593.89382
 477440.3217 -988.4273752 -4651.181181
 477404.7094 -1754.52174 -7316.855934
 477367.4027 -2311.309708 -9321.588959
 477332.9459 -3133.216584 -10738.38767
 477338.2158 1197.838342 10893.30984
 477365.7265 790.9079641 9654.478639
 477403.7705 544.2120963 7564.061549
 477439.6523 313.8655534 4811.571203
 477461.1389 100.8641163 1649.826319
 477461.1391 -100.8637199 -1649.76934
 477439.6529 -313.8650639 -4811.514221
 477403.7714 -544.2118013 -7564.004548
 477365.7276 -790.9075601 -9654.421666
 477338.2171 -1197.8381 -10893.2529
 477338.2158 -1197.838341 10893.30984
 477365.7265 -790.9079636 9654.478637
 477403.7705 -544.2120959 7564.061552
 477439.6523 -313.8655529 4811.571198
 477461.1389 -100.8641158 1649.826325
 477461.1391 100.8637204 -1649.769345
 477439.6529 313.8650644 -4811.514216
 477403.7714 544.2118017 -7564.004551
 477365.7276 790.9075606 -9654.421664
 477338.2171 1197.8381 -10893.2529
 477332.9447 -3133.217282 10738.44444
 477367.4015 -2311.310653 9321.645998
 477404.7085 -1754.522939 7316.912969
 477440.3212 -988.4285217 4651.238252
 477461.2373 -312.1733685 1593.95086
 477461.2375 312.172093 -1593.893815
 477440.3217 988.4273756 -4651.181185
 477404.7094 1754.521741 -7316.85593
 477367.4027 2311.309708 -9321.58896
 477332.9459 3133.216584 -10738.38767
 0 0 0
 477361.6797 -5174.919005 8421.299675
 477402.1652 -3503.914342 6838.604442
 477441.2417 -1740.372519 4324.711707
 477461.4061 -538.7694742 1478.755927
 477461.4063 538.7675016 -1478.69874
 477441.2422 1740.370554 -4324.654553
 477402.1661 3503.912594 -6838.547265
 477361.6807 5174.917285 -8421.242389
 0 0 0
 0 0 0
 477311.8774 -9064.30994 7942.372397
 477393.3534 -5094.674961 6442.1857
 477443.3861 -2293.30878 3798.039585
 477461.5976 -788.6693488 1293.112409
 477461.5977 788.6667578 -1293.055062
 477443.3866 2293.306308 -3797.98223
 477393.3541 5094.672732 -6442.128609
 477311.8784 9064.307863 -7942.315174
 0 0 0
 0 0 0
 0 0 0
 0 0 0
 477446.0704 -3190.718224 2634.479151
 477461.3785 -1210.17101 1019.235232
 477461.3786 1210.168054 -1019.177718
 477446.0707 3190.71528 -2634.421461
 0 0 0
 0 0 0
 0 0 0
 0 0 0
 0 0 0
 0 0 0
 477447.9662 3276.002431 2139.794388
 477461.6635 1243.317423 827.8528879
 477461.6636 -1243.314586 -827.7922721
 477447.9664 -3275.999618 -2139.73358
 0 0 0
 0 0 0
 0 0 0
 0 0 0
 477330.6786 9253.06086 6455.652813
 477406.4283 5249.670827 5235.886253
 477448.0401 2390.746482 3086.205625
 477462.1351 822.732773 1050.673379
 477462.1353 -822.7303093 -1050.61292
 477448.0405 -2390.744075 -3086.145197
 477406.4289 -5249.668722 -5235.826068
 477330.6794 -9253.058855 -6455.592526
 0 0 0
 0 0 0
 477385.185 5330.821016 6843.884139
 477417.8314 3632.824122 5557.710622
 477447.5809 1823.652034 3514.691134
 477462.1501 567.5965488 1201.809838
 477462.1503 -567.5946287 -1201.749561
 477447.5814 -1823.650233 -3514.630851
 477417.8321 -3632.822363 -5557.650401
 477385.1859 -5330.819412 -6843.823753
 0 0 0
 477373.4039 3216.301876 8726.965758
 477397.8284 2408.338781 7575.267787
 477423.4312 1837.748045 5946.53685
 477447.8931 1043.061303 3780.573944
 477462.1271 331.1206311 1295.701897
 477462.1273 -331.1194589 -1295.64174
 477447.8935 -1043.060086 -3780.513808
 477423.432 -1837.747036 -5946.476694
 477397.8293 -2408.337778 -7575.20771
 477373.405 -3216.301232 -8726.905942
 477380.3442 1230.176836 8852.397949
 477398.8244 824.6750037 7845.612751
 477424.0777 572.9756581 6147.599931
 477447.8638 332.8039093 3911.256126
 477462.1039 107.4390721 1341.296715
 477462.1041 -107.4386369 -1341.236633
 477447.8643 -332.8035864 -3911.196037
 477424.0785 -572.9752061 -6147.539861
 477398.8254 -824.6747453 -7845.552702
 477380.3453 -1230.17656 -8852.337965
 477380.3442 -1230.176836 8852.397948
 477398.8244 -824.6750035 7845.612754
 477424.0777 -572.975658 6147.599926
 477447.8638 -332.8039091 3911.256133
 477462.1039 -107.4390719 1341.296708
 477462.1041 107.438637 -1341.236626
 477447.8643 332.8035866 -3911.196044
 477424.0785 572.9752063 -6147.539856
 477398.8254 824.6747455 -7845.552705
 477380.3453 1230.17656 -8852.337964
 477373.4039 -3216.301876 8726.965759
 477397.8284 -2408.33878 7575.267784
 477423.4312 -1837.748045 5946.536854
 477447.8931 -1043.061303 3780.573939
 477462.1271 -331.1206309 1295.701903
 477462.1273 331.1194591 -1295.641746
 477447.8935 1043.060087 -3780.513802
 477423.432 1837.747036 -5946.476698
 477397.8293 2408.337778 -7575.207707
 477373.405 3216.301233 -8726.905942
 0 0 0
 477385.185 -5330.821016 6843.884141
 477417.8314 -3632.824121 5557.710619
 477447.5809 -1823.652034 3514.691138
 477462.1501 -567.5965486 1201.809833
 477462.1503 567.5946289 -1201.749556
 477447.5814 1823.650233 -3514.630855
 477417.8321 3632.822363 -5557.650398
 477385.1859 5330.819412 -6843.823754
 0 0 0
 0 0 0
 477330.6786 -9253.06086 6455.652813
 477406.4283 -5249.670827 5235.886255
 477448.0401 -2390.746482 3086.205623
 477462.1351 -822.7327729 1050.673383
 477462.1353 822.7303095 -1050.612923
 477448.0405 2390.744075 -3086.145195
 477406.4289 5249.668722 -5235.826069
 477330.6794 9253.058855 -6455.592525
 0 0 0
 0 0 0
 0 0 0
 0 0 0
 477447.9662 -3276.002431 2139.794388
 477461.6635 -1243.317423 827.8528873
 477461.6636 1243.314587 -827.7922709
 477447.9664 3275.999618 -2139.733581
 0 0 0
 0 0 0
 0 0 0
 0 0 0
 0 0 0
 0 0 0
 477449.1303 3342.763262 1739.314051
 477461.8387 1269.283834 672.8980219
 477461.8388 -1269.281113 -672.8343139
 477449.1305 -3342.760553 -1739.250153
 0 0 0
 0 0 0
 0 0 0
 0 0 0
 477342.5778 9400.839454 5249.663163
 477414.8059 5371.300653 4257.177453
 477451.0335 2467.307593 2508.849618
 477462.4804 849.5244892 854.0429962
 477462.4805 -849.5221092 -853.979463
 477451.0338 -2467.305314 -2508.786087
 477414.8065 -5371.298604 -4257.114228
 477342.5785 -9400.837538 -5249.59981
 0 0 0
 0 0 0
 477400.4336 5453.113029 5564.243973
 477428.0194 3734.217427 4518.101462
 477451.7143 1889.331201 2856.957911
 477462.6357 590.369568 976.8613186