# OOMMF OVF 2.0
#
# Segment count: 1
#
# Begin: Segment
# Begin: Header
#
# Title: Oxs_MinDriver::Magnetization
# Desc: Oxs vector field output
# Desc:  MIF source file: F:/Bogdan/UNIC/2022/Master_degree/Simulation_samples/Cylinder0_5000.mif
# Desc:  Iteration: 1979, State id: 15288
# Desc:  Stage: 4, Stage iteration: 95
# Desc:  Stage simulation time: 0 s
# Desc:  Total simulation time: -2 s
# meshunit: m
# meshtype: rectangular
# xbase: -8.9999999999999995e-09
# ybase: -8.9999999999999995e-09
# zbase: -8.6999999999999998e-08
# xnodes: 10
# ynodes: 10
# znodes: 88
# xstepsize: 2.0000000000000001e-09
# ystepsize: 2.0000000000000001e-09
# zstepsize: 2.0000000000000001e-09
# xmin: -1e-08
# ymin: -1e-08
# zmin: -8.7999999999999994e-08
# xmax: 1e-08
# ymax: 1e-08
# zmax: 8.800000000000002e-08
# valuedim: 3
# valuelabels: Magnetization_x Magnetization_y Magnetization_z
# valueunits: A/m A/m A/m
#
# End: Header
#
# Begin: Data Text
 0 0 0
 0 0 0
 0 0 0
 477363.847 2117.223875 9547.054116
 477449.8171 806.0875718 3590.780025
 477449.8172 -806.0850344 -3590.757953
 477363.8474 -2117.221352 -9547.031961
 0 0 0
 0 0 0
 0 0 0
 0 0 0
 476656.6515 6368.365433 27013.91929
 476973.1862 3394.517449 21375.87807
 477294.8926 1419.88662 12626.98245
 477444.7532 495.6095902 4258.319671
 477444.7534 -495.60741 -4258.297749
 477294.8932 -1419.884498 -12626.96052
 476973.1872 -3394.515541 -21375.8562
 476656.6527 -6368.363624 -27013.89734
 0 0 0
 0 0 0
 476617.7904 3436.857818 28205.33932
 476948.1578 2300.056309 22068.88733
 477267.9421 1102.512595 13636.98076
 477441.684 337.9149423 4603.860237
 477441.6842 -337.9132856 -4603.838472
 477267.9427 -1102.510986 -13636.95898
 476948.1588 -2300.054784 -22068.86555
 476617.7917 -3436.856363 -28205.31744
 0 0 0
 476073.7544 2115.94054 36347.96322
 476486.8973 1441.830507 30496.37809
 476909.9696 1114.41734 22967.59186
 477253.1977 624.1760185 14172.7561
 477439.996 196.2185406 4783.614382
 477439.9963 -196.2175157 -4783.592722
 477253.1983 -624.1750136 -14172.73443
 476909.9706 -1114.416399 -22967.57017
 476486.8987 -1441.829649 -30496.35637
 476073.7561 -2115.93993 -36347.94152
 476050.9172 806.114327 36698.03472
 476447.8843 500.6797671 31129.31418
 476892.0076 342.6208521 23361.65553
 477246.5674 197.5076372 14406.46206
 477439.2427 63.39700653 4861.77246
 477439.2429 -63.39666273 -4861.750862
 477246.5681 -197.507308 -14406.44045
 476892.0087 -342.6205322 -23361.6339
 476447.8857 -500.6794883 -31129.29251
 476050.9188 -806.1140984 -36698.013
 476050.9172 -806.1143359 36698.03472
 476447.8843 -500.6797759 31129.31418
 476892.0076 -342.6208609 23361.65553
 477246.5674 -197.5076461 14406.46206
 477439.2427 -63.3970154 4861.77246
 477439.2429 63.39665385 -4861.750861
 477246.5681 197.5072991 -14406.44045
 476892.0087 342.6205233 -23361.6339
 476447.8857 500.6794795 -31129.29251
 476050.9188 806.1140896 -36698.013
 476073.7544 -2115.940549 36347.96322
 476486.8973 -1441.830516 30496.37809
 476909.9696 -1114.417348 22967.59186
 477253.1977 -624.1760274 14172.75609
 477439.996 -196.2185494 4783.614383
 477439.9963 196.2175069 -4783.592723
 477253.1983 624.1750047 -14172.73443
 476909.9706 1114.41639 -22967.57017
 476486.8987 1441.82964 -30496.35637
 476073.7561 2115.939921 -36347.94152
 0 0 0
 476617.7904 -3436.857827 28205.33932
 476948.1578 -2300.056318 22068.88733
 477267.9421 -1102.512604 13636.98077
 477441.684 -337.9149512 4603.860236
 477441.6842 337.9132767 -4603.838471
 477267.9427 1102.510978 -13636.95898
 476948.1588 2300.054775 -22068.86555
 476617.7917 3436.856354 -28205.31744
 0 0 0
 0 0 0
 476656.6515 -6368.365442 27013.91929
 476973.1862 -3394.517458 21375.87807
 477294.8926 -1419.886629 12626.98245
 477444.7532 -495.609599 4258.319671
 477444.7534 495.6074012 -4258.297749
 477294.8932 1419.884489 -12626.96052
 476973.1872 3394.515533 -21375.8562
 476656.6527 6368.363615 -27013.89734
 0 0 0
 0 0 0
 0 0 0
 0 0 0
 477363.847 -2117.223884 9547.054116
 477449.8171 -806.0875806 3590.780025
 477449.8172 806.0850256 -3590.757953
 477363.8474 2117.221343 -9547.031961
 0 0 0
 0 0 0
 0 0 0
 0 0 0
 0 0 0
 0 0 0
 477385.655 2223.25419 8358.517634
 477452.4836 842.9795025 3207.266068
 477452.4838 -842.9771086 -3207.243324
 477385.6554 -2223.251808 -8358.494811
 0 0 0
 0 0 0
 0 0 0
 0 0 0
 476796.3533 6786.557001 24311.54894
 477053.729 3454.736121 19485.27041
 477323.6718 1359.056094 11495.06972
 477447.8471 476.7757248 3898.364599
 477447.8473 -476.7736395 -3898.342012
 477323.6723 -1359.054081 -11495.04709
 477053.7299 -3454.734317 -19485.24788
 476796.3545 -6786.555302 -24311.5263
 0 0 0
 0 0 0
 476767.612 3514.906654 25537.44003
 477025.5171 2285.884436 20329.8317
 477295.0279 1043.887884 12658.51089
 477444.6256 313.2223379 4289.836749
 477444.6258 -313.2207475 -4289.814295
 477295.0285 -1043.886329 -12658.48847
 477025.5181 -2285.882993 -20329.80919
 476767.6133 -3514.905267 -25537.41745
 0 0 0
 476331.1224 2200.623027 32797.71937
 476643.6687 1380.429177 27942.4188
 476985.1728 1057.074943 21351.78646
 477278.8697 580.1121949 13282.14401
 477442.7704 179.5780604 4498.88934
 477442.7706 -179.5770634 -4498.867026
 477278.8703 -580.1112388 -13282.12164
 476985.1738 -1057.074026 -21351.76411
 476643.6701 -1380.428374 -27942.39634
 476331.1239 -2200.622462 -32797.69696
 476309.1092 841.0755811 33178.25172
 476600.6527 481.7107054 28695.94176
 476964.908 318.4914469 21823.0707
 477271.4236 181.0738456 13558.2707
 477441.9271 57.56182251 4590.668542
 477441.9273 -57.56149453 -4590.646273
 477271.4243 -181.0735141 -13558.24843
 476964.909 -318.4911544 -21823.04836
 476600.6541 -481.7104296 -28695.91938
 476309.1108 -841.0753714 -33178.22928
 476309.1092 -841.0755898 33178.25172
 476600.6527 -481.7107141 28695.94175
 476964.908 -318.4914556 21823.0707
 477271.4236 -181.0738543 13558.2707
 477441.9271 -57.56183123 4590.668545
 477441.9273 57.56148581 -4590.646275
 477271.4243 181.0735054 -13558.24842
 476964.909 318.4911457 -21823.04836
 476600.6541 481.710421 -28695.91938
 476309.1108 841.0753627 -33178.22928
 476331.1224 -2200.623035 32797.71936
 476643.6687 -1380.429185 27942.4188
 476985.1728 -1057.074952 21351.78646
 477278.8697 -580.1122036 13282.14401
 477442.7704 -179.5780691 4498.889338
 477442.7706 179.5770547 -4498.867024
 477278.8703 580.1112301 -13282.12164
 476985.1738 1057.074017 -21351.76411
 476643.6701 1380.428365 -27942.39634
 476331.1239 2200.622453 -32797.69696
 0 0 0
 476767.612 -3514.906663 25537.44003
 477025.5171 -2285.884445 20329.8317
 477295.0279 -1043.887893 12658.51089
 477444.6256 -313.2223466 4289.83675
 477444.6258 313.2207388 -4289.814296
 477295.0285 1043.88632 -12658.48847
 477025.5181 2285.882984 -20329.80919
 476767.6133 3514.905259 -25537.41745
 0 0 0
 0 0 0
 476796.3533 -6786.55701 24311.54894
 477053.729 -3454.73613 19485.27041
 477323.6718 -1359.056102 11495.06972
 477447.8471 -476.7757334 3898.364599
 477447.8473 476.7736309 -3898.342011
 477323.6723 1359.054073 -11495.04709
 477053.7299 3454.734308 -19485.24788
 476796.3545 6786.555293 -24311.5263
 0 0 0
 0 0 0
 0 0 0
 0 0 0
 477385.655 -2223.254199 8358.517634
 477452.4836 -842.9795112 3207.266068
 477452.4838 842.9770999 -3207.243324
 477385.6554 2223.251799 -8358.49481
 0 0 0
 0 0 0
 0 0 0
 0 0 0
 0 0 0
 0 0 0
 477405.445 2399.466653 7082.014179
 477455.3142 907.2209276 2733.340928
 477455.3144 -907.2186966 -2733.317118
 477405.4454 -2399.464438 -7081.990271
 0 0 0
 0 0 0
 0 0 0
 0 0 0
 476949.5048 7265.711489 20934.4356
 477150.7567 3710.388507 16889.63321
 477357.7971 1463.650843 9963.062312
 477451.7169 506.7471307 3387.112965
 477451.7171 -506.7451832 -3387.089263
 477357.7976 -1463.648953 -9963.038641
 477150.7575 -3710.386835 -16889.60957
 476949.5059 -7265.70991 -20934.4119
 0 0 0
 0 0 0
 476937.5828 3778.321138 22093.83785
 477127.1716 2425.571511 17766.54329
 477332.8229 1090.120343 11138.1829
 477448.8606 322.523846 3788.512426
 477448.8607 -322.522341 -3788.4889
 477332.8235 -1090.118898 -11138.15929
 477127.1724 -2425.570146 -17766.51974
 476937.5839 -3778.319855 -22093.81413
 0 0 0
 476619.7607 2364.655602 28282.2097
 476841.6455 1484.16201 24325.16627
 477091.9626 1103.877084 18812.54727
 477317.7348 592.0814587 11802.57572
 477447.0881 180.5066168 4014.572365
 477447.0883 -180.5056807 -4014.548914
 477317.7354 -592.0805396 -11802.55231
 477091.9636 -1103.876242 -18812.52372
 476841.6467 -1484.161252 -24325.14275
 476619.7621 -2364.655087 -28282.1862
 476602.6731 902.3573095 28652.20868
 476804.2295 511.067224 25086.58689
 477072.8718 328.0153679 19319.38583
 477310.4333 182.1160841 12107.37015
 477446.2475 57.06860981 4116.888184
 477446.2477 -57.06829258 -4116.864816
 477310.4339 -182.1157863 -12107.34673
 477072.8728 -328.015076 -19319.3624
 476804.2307 -511.0669793 -25086.56338
 476602.6745 -902.357113 -28652.18514
 476602.6731 -902.3573179 28652.20868
 476804.2295 -511.0672324 25086.58689
 477072.8718 -328.0153762 19319.38582
 477310.4333 -182.1160925 12107.37015
 477446.2475 -57.06861821 4116.88818
 477446.2477 57.06828419 -4116.864813
 477310.4339 182.1157779 -12107.34673
 477072.8728 328.0150676 -19319.3624
 476804.2307 511.0669709 -25086.56338
 476602.6745 902.3571047 -28652.18513
 476619.7607 -2364.655611 28282.2097
 476841.6455 -1484.162019 24325.16627
 477091.9626 -1103.877093 18812.54727
 477317.7348 -592.0814671 11802.57572
 477447.0881 -180.5066252 4014.572368
 477447.0883 180.5056723 -4014.548917
 477317.7354 592.0805312 -11802.5523
 477091.9636 1103.876234 -18812.52372
 476841.6467 1484.161243 -24325.14275
 476619.7621 2364.655078 -28282.1862
 0 0 0
 476937.5828 -3778.321146 22093.83785
 477127.1716 -2425.57152 17766.54329
 477332.8229 -1090.120351 11138.1829
 477448.8606 -322.5238544 3788.512423
 477448.8607 322.5223326 -3788.488897
 477332.8235 1090.118889 -11138.15929
 477127.1724 2425.570138 -17766.51974
 476937.5839 3778.319846 -22093.81413
 0 0 0
 0 0 0
 476949.5048 -7265.711497 20934.4356
 477150.7567 -3710.388515 16889.63322
 477357.7971 -1463.650851 9963.062311
 477451.7169 -506.747139 3387.112966
 477451.7171 506.7451748 -3387.089264
 477357.7976 1463.648944 -9963.038639
 477150.7575 3710.386827 -16889.60957
 476949.5059 7265.709901 -20934.4119
 0 0 0
 0 0 0
 0 0 0
 0 0 0
 477405.445 -2399.466662 7082.014179
 477455.3142 -907.220936 2733.340928
 477455.3144 907.2186882 -2733.317117
 477405.4454 2399.464429 -7081.990272
 0 0 0
 0 0 0
 0 0 0
 0 0 0
 0 0 0
 0 0 0
 477420.4691 2597.485558 5900.851557
 477457.5424 981.6286042 2280.979769
 477457.5426 -981.6265251 -2280.954606
 477420.4694 -2597.48349 -5900.826317
 0 0 0
 0 0 0
 0 0 0
 0 0 0
 477076.8819 7737.112496 17597.07756
 477234.4839 4040.31361 14240.59486
 477387.2466 1646.064776 8401.106138
 477455.1055 565.9156597 2858.887732
 477455.1057 -565.9138368 -2858.862695
 477387.247 -1646.063023 -8401.081049
 477234.4847 -4040.312047 -14240.56991
 477076.8829 -7737.11103 -17597.0525
 0 0 0
 0 0 0
 477083.0117 4112.475757 18621.46132
 477219.2907 2657.943995 15051.75138
 477368.3928 1214.284314 9477.043972
 477452.9278 360.7781428 3231.54522
 477452.928 -360.7767403 -3231.520277
 477368.3933 -1214.28295 -9477.019081
 477219.2915 -2657.942734 -15051.72638
 477083.0127 -4112.474558 -18621.43628
 0 0 0
 476864.1199 2555.323691 23789.76209
 477018.0867 1665.938786 20563.09598
 477193.5773 1228.290828 16020.37471
 477356.4596 658.1086122 10111.8073
 477451.4883 200.562872 3450.704259
 477451.4885 -200.5619891 -3450.679453
 477356.4601 -658.1077629 -10111.78241
 477193.5781 -1228.290031 -16020.34987
 477018.0878 -1665.938086 -20563.07103
 476864.1211 -2555.323213 -23789.73725
 476853.3735 974.5099359 24120.15321
 476990.3206 569.6988144 21255.13551
 477178.5177 366.3400727 16504.52472
 477350.421 202.2254843 10411.81755
 477450.7775 63.14946105 3552.797424
 477450.7777 -63.1491664 -3552.772648
 477350.4216 -202.2251979 -10411.79278
 477178.5186 -366.3398069 -16504.49987
 476990.3217 -569.6985835 -21255.11064
 476853.3748 -974.509755 -24120.1283
 476853.3735 -974.5099438 24120.15321
 476990.3206 -569.6988223 21255.13551
 477178.5177 -366.3400807 16504.52473
 477350.421 -202.2254922 10411.81755
 477450.7775 -63.14946899 3552.797428
 477450.7777 63.14915847 -3552.772653
 477350.4216 202.2251899 -10411.79277
 477178.5186 366.339799 -16504.49987
 476990.3217 569.6985756 -21255.11064
 476853.3748 974.5097471 -24120.1283
 476864.1199 -2555.323699 23789.76209
 477018.0867 -1665.938794 20563.09598
 477193.5773 -1228.290836 16020.3747
 477356.4596 -658.1086201 10111.8073
 477451.4883 -200.5628799 3450.704255
 477451.4885 200.5619811 -3450.679448
 477356.4601 658.1077549 -10111.78241
 477193.5781 1228.290023 -16020.34987
 477018.0878 1665.938078 -20563.07103
 476864.1211 2555.323205 -23789.73725
 0 0 0
 477083.0117 -4112.475765 18621.46132
 477219.2907 -2657.944003 15051.75138
 477368.3928 -1214.284322 9477.04397
 477452.9278 -360.7781507 3231.545223
 477452.928 360.7767324 -3231.52028
 477368.3933 1214.282943 -9477.019079
 477219.2915 2657.942726 -15051.72638
 477083.0127 4112.47455 -18621.43628
 0 0 0
 0 0 0
 477076.8819 -7737.112504 17597.07756
 477234.4839 -4040.313618 14240.59486
 477387.2466 -1646.064784 8401.10614
 477455.1055 -565.9156676 2858.88773
 477455.1057 565.9138289 -2858.862693
 477387.247 1646.063015 -8401.081051
 477234.4847 4040.312039 -14240.56991
 477076.8829 7737.111022 -17597.0525
 0 0 0
 0 0 0
 0 0 0
 0 0 0
 477420.4691 -2597.485566 5900.851556
 477457.5424 -981.6286121 2280.97977
 477457.5426 981.6265172 -2280.954606
 477420.4694 2597.483482 -5900.826317
 0 0 0
 0 0 0
 0 0 0
 0 0 0
 0 0 0
 0 0 0
 477431.1068 2785.206068 4863.348385
 477459.1334 1053.349451 1880.871502
 477459.1335 -1053.347497 -1880.844816
 477431.1071 -2785.204128 -4863.321605
 0 0 0
 0 0 0
 0 0 0
 0 0 0
 477171.6593 8163.231708 14575.33837
 477297.8921 4367.421665 11811.82277
 477409.6018 1841.566025 6967.931402
 477457.689 632.056909 2372.126208
 477457.6892 -632.0552017 -2372.09961
 477409.6022 -1841.564372 -6967.90482
 477297.8927 -4367.420204 -11811.79626
 477171.6602 -8163.230332 -14575.3118
 0 0 0
 0 0 0
 477193.4752 4442.537489 15444.17014
 477291.0556 2910.57299 12515.91266
 477396.6995 1364.912718 7899.341793
 477456.2035 410.4357895 2697.51702
 477456.2036 -410.4344684 -2697.49055
 477396.7 -1364.911447 -7899.315286
 477291.0563 -2910.571802 -12515.88617
 477193.4761 -4442.536368 -15444.14354
 0 0 0
 477049.1535 2737.835448 19709.91489
 477154.8254 1860.942971 17078.66425
 477275.07 1379.048423 13359.5312
 477388.4015 748.153714 8463.196607
 477455.173 230.0844607 2894.160961
 477455.1731 -230.0836334 -2894.134564
 477388.4019 -748.1529128 -8463.170217
 477275.0707 -1379.047679 -13359.50474
 477154.8264 -1860.942317 -17078.63781
 477049.1545 -2737.835 -19709.88852
 477044.1669 1044.530009 19991.07476
 477136.3634 635.3997155 17673.6616
 477264.6783 416.0107464 13788.58535
 477384.0386 231.7727847 8734.828466
 477454.6474 72.8182235 2987.586254
 477454.6476 -72.81794688 -2987.559915
 477384.0391 -231.7725139 -8734.802098
 477264.6791 -416.0105014 -13788.55896
 477136.3643 -635.3994943 -17673.63517
 477044.168 -1044.529842 -19991.04832
 477044.1669 -1044.530017 19991.07475
 477136.3634 -635.3997228 17673.66161
 477264.6783 -416.0107538 13788.58535
 477384.0386 -231.7727921 8734.828471
 477454.6474 -72.81823085 2987.586249
 477454.6476 72.81793954 -2987.559909
 477384.0391 231.7725065 -8734.802102
 477264.6791 416.0104941 -13788.55896
 477136.3643 635.399487 -17673.63518
 477044.168 1044.529835 -19991.04832
 477049.1535 -2737.835455 19709.91489
 477154.8254 -1860.942979 17078.66425
 477275.07 -1379.048431 13359.5312
 477388.4015 -748.1537214 8463.196603
 477455.173 -230.084468 2894.160966
 477455.1731 230.083626 -2894.134569
 477388.4019 748.1529055 -8463.170213
 477275.0707 1379.047671 -13359.50474
 477154.8264 1860.94231 -17078.6378
 477049.1545 2737.834993 -19709.88852
 0 0 0
 477193.4752 -4442.537496 15444.17014
 477291.0556 -2910.572998 12515.91265
 477396.6995 -1364.912725 7899.341796
 477456.2035 -410.4357968 2697.517016
 477456.2036 410.4344611 -2697.490546
 477396.7 1364.91144 -7899.315289
 477291.0563 2910.571794 -12515.88617
 477193.4761 4442.53636 -15444.14354
 0 0 0
 0 0 0
 477171.6593 -8163.231715 14575.33837
 477297.8921 -4367.421672 11811.82277
 477409.6018 -1841.566032 6967.9314
 477457.689 -632.0569164 2372.12621
 477457.6892 632.0551944 -2372.099613
 477409.6022 1841.564365 -6967.904818
 477297.8927 4367.420197 -11811.79626
 477171.6602 8163.230324 -14575.3118
 0 0 0
 0 0 0
 0 0 0
 0 0 0
 477431.1068 -2785.206076 4863.348385
 477459.1334 -1053.349458 1880.871501
 477459.1335 1053.347489 -1880.844815
 477431.1071 2785.20412 -4863.321605
 0 0 0
 0 0 0
 0 0 0
 0 0 0
 0 0 0
 0 0 0
 477438.3146 2948.136318 3979.383687
 477460.214 1116.144387 1539.329136
 477460.2141 -1116.142536 -1539.300798
 477438.3149 -2948.134477 -3979.355252
 0 0 0
 0 0 0
 0 0 0
 0 0 0
 477237.9826 8526.748691 11961.34671
 477342.7513 4657.17568 9699.472572
 477425.4524 2019.901348 5720.903251
 477459.5231 693.4974603 1947.861772
 477459.5232 -693.4958403 -1947.833515
 477425.4527 -2019.89979 -5720.875012
 477342.7519 -4657.174292 -9699.444422
 477237.9833 -8526.747389 -11961.3185
 0 0 0
 0 0 0
 477272.0801 4734.513996 12681.37238
 477342.7548 3143.637068 10289.96139
 477417.3326 1510.137769 6502.408378
 477458.6074 459.6054665 2222.217522
 477458.6076 -459.6042206 -2222.18938
 477417.333 -1510.136559 -6502.380207
 477342.7554 -3143.63595 -10289.93325
 477272.0809 -4734.512933 -12681.34413
 0 0 0
 477181.1255 2896.67902 16175.723
 477253.3926 2038.812728 14032.59814
 477334.8477 1524.32726 10999.58473
 477412.2077 839.383569 6982.166378
 477457.9442 260.9029228 2390.559158
 477457.9443 -260.9021388 -2390.531082
 477412.2081 -839.3828142 -6982.138315
 477334.8484 -1524.326555 -10999.55661
 477253.3934 -2038.812107 -14032.57005
 477181.1265 -2896.678597 -16175.695
 477180.6763 1105.945314 16408.84955
 477242.3749 696.4431088 14529.34599
 477328.5227 465.1572498 11363.8174
 477409.3993 262.6013726 7215.802591
 477457.5962 83.22418114 2471.470269
 477457.5964 -83.22391848 -2471.442245
 477409.3997 -262.6011193 -7215.774544
 477328.5234 -465.157013 -11363.78935
 477242.3757 -696.4429049 -14529.31791
 477180.6773 -1105.945153 -16408.82148
 477180.6763 -1105.94532 16408.84955
 477242.3749 -696.4431154 14529.34599
 477328.5227 -465.1572565 11363.81741
 477409.3993 -262.6013792 7215.802585
 477457.5962 -83.22418779 2471.470275
 477457.5964 83.22391182 -2471.442251
 477409.3997 262.6011126 -7215.774539
 477328.5234 465.1570064 -11363.78935
 477242.3757 696.4428982 -14529.31791
 477180.6773 1105.945147 -16408.82148
 477181.1255 -2896.679026 16175.723
 477253.3926 -2038.812734 14032.59815
 477334.8477 -1524.327267 10999.58473
 477412.2077 -839.3835756 6982.166382
 477457.9442 -260.9029295 2390.559152
 477457.9443 260.9021322 -2390.531077
 477412.2081 839.3828076 -6982.138319
 477334.8484 1524.326548 -10999.55661
 477253.3934 2038.812101 -14032.57006
 477181.1265 2896.67859 -16175.695
 0 0 0
 477272.0801 -4734.514002 12681.37238
 477342.7548 -3143.637075 10289.9614
 477417.3326 -1510.137776 6502.408375
 477458.6074 -459.6054732 2222.217526
 477458.6076 459.6042139 -2222.189385
 477417.333 1510.136553 -6502.380204
 477342.7554 3143.635943 -10289.93326
 477272.0809 4734.512926 -12681.34413
 0 0 0
 0 0 0
 477237.9826 -8526.748698 11961.34671
 477342.7513 -4657.175686 9699.472571
 477425.4524 -2019.901354 5720.903252
 477459.5231 -693.497467 1947.861769
 477459.5232 693.4958337 -1947.833513
 477425.4527 2019.899783 -5720.875014
 477342.7519 4657.174286 -9699.444422
 477237.9833 8526.747382 -11961.3185
 0 0 0
 0 0 0
 0 0 0
 0 0 0
 477438.3146 -2948.136325 3979.383686
 477460.214 -1116.144393 1539.329137
 477460.2141 1116.142529 -1539.300799
 477438.3149 2948.13447 -3979.355252
 0 0 0
 0 0 0
 0 0 0
 0 0 0
 0 0 0
 0 0 0
 477443.0442 3082.70907 3241.570271
 477460.9239 1168.248285 1254.049194
 477460.924 -1168.246514 -1254.019116
 477443.0444 -3082.707311 -3241.540109
 0 0 0
 0 0 0
 0 0 0
 0 0 0
 477282.623 8825.198166 9761.398942
 477373.2132 4899.168039 7917.371491
 477436.2383 2170.738267 4668.787997
 477460.7711 745.9064108 1589.649702
 477460.7712 -745.9048668 -1589.619728
 477436.2386 -2170.736772 -4668.757984
 477373.2137 -4899.166718 -7917.341652
 477282.6237 -8825.196919 -9761.369008
 0 0 0
 0 0 0
 477325.8374 4978.176054 10350.55827
 477378.3434 3342.07342 8403.515986
 477431.6311 1636.363691 5313.303594
 477460.2797 502.883093 1816.515186
 477460.2798 -502.8818996 -1816.485277
 477431.6315 -1636.362546 -5313.273751
 477378.3439 -3342.072343 -8403.486054
 477325.838 -4978.175043 -10350.52833
 0 0 0
 477271.9065 3027.925008 13199.62848
 477321.5149 2189.186764 11456.44545
 477376.5217 1650.551282 8989.076936
 477428.9477 920.6354774 5711.705287
 477459.9029 288.7561934 1956.798908
 477459.903 -288.7554489 -1956.769108
 477428.9481 -920.6347501 -5711.675423
 477376.5223 -1650.550616 -8989.047152
 477321.5156 -2189.186168 -11456.4156
 477271.9074 -3027.924603 -13199.59879
 477274.7982 1156.89025 13390.29004
 477315.9747 748.4822564 11864.71015
 477373.3234 508.3869799 9291.013449
 477427.373 290.4545915 5906.817232
 477459.6983 92.77225986 2024.643204
 477459.6984 -92.77200773 -2024.61342
 477427.3733 -290.4543531 -5906.787463
 477373.324 -508.3867504 -9290.983634
 477315.9755 -748.4820628 -11864.68037
 477274.7991 -1156.890096 -13390.26026
 477274.7982 -1156.890256 13390.29004
 477315.9747 -748.4822623 11864.71015
 477373.3234 -508.3869858 9291.013444
 477427.373 -290.4545974 5906.817237
 477459.6983 -92.77226577 2024.643197
 477459.6984 92.77200184 -2024.613414
 477427.3733 290.4543472 -5906.787469
 477373.324 508.3867445 -9290.98363
 477315.9755 748.482057 -11864.68037
 477274.7991 1156.89009 -13390.26026
 477271.9065 -3027.925014 13199.62848
 477321.5149 -2189.18677 11456.44545
 477376.5217 -1650.551287 8989.076939
 477428.9477 -920.6354834 5711.705282
 477459.9029 -288.7561993 1956.798914
 477459.903 288.7554429 -1956.769114
 477428.9481 920.6347442 -5711.675418
 477376.5223 1650.55061 -8989.047156
 477321.5156 2189.186162 -11456.4156
 477271.9074 3027.924597 -13199.5988
 0 0 0
 477325.8374 -4978.17606 10350.55827
 477378.3434 -3342.073426 8403.515984
 477431.6311 -1636.363696 5313.303598
 477460.2797 -502.8830989 1816.515182
 477460.2798 502.8818937 -1816.485273
 477431.6315 1636.36254 -5313.273755
 477378.3439 3342.072337 -8403.486052
 477325.838 4978.175037 -10350.52833
 0 0 0
 0 0 0
 477282.623 -8825.198172 9761.398941
 477373.2132 -4899.168045 7917.371492
 477436.2383 -2170.738273 4668.787995
 477460.7711 -745.9064167 1589.649704
 477460.7712 745.9048609 -1589.619731
 477436.2386 2170.736766 -4668.757983
 477373.2137 4899.166712 -7917.341653
 477282.6237 8825.196913 -9761.369008
 0 0 0
 0 0 0
 0 0 0
 0 0 0
 477443.0442 -3082.709076 3241.570271
 477460.9239 -1168.248291 1254.049193
 477460.924 1168.246508 -1254.019116
 477443.0444 3082.707305 -3241.54011
 0 0 0
 0 0 0
 0 0 0
 0 0 0
 0 0 0
 0 0 0
 477446.0705 3190.717648 2634.466349
 477461.3785 1210.170316 1019.222475
 477461.3786 -1210.168611 -1019.190624
 477446.0707 -3190.715952 -2634.434386
 0 0 0
 0 0 0
 0 0 0
 0 0 0
 477311.8776 9064.309414 7942.35899
 477393.3535 5094.674488 6442.17248
 477443.3862 2293.308371 3798.026561
 477461.5976 788.6688983 1293.099555
 477461.5977 -788.6674094 -1293.067772
 477443.3865 -2293.306937 -3797.99483
 477393.354 -5094.673211 -6442.140829
 477311.8782 -9064.308213 -7942.32731
 0 0 0
 0 0 0
 477361.6799 5174.918782 8421.28631
 477402.1654 3503.914039 6838.591266
 477441.2418 1740.372268 4324.698719
 477461.4061 538.7690688 1478.743214
 477461.4062 -538.7679249 -1478.711558
 477441.2421 -1740.371157 -4324.667001
 477402.1659 -3503.913012 -6838.559656
 477361.6805 -5174.917803 -8421.254553
 0 0 0
 477332.945 3133.217002 10738.43117
 477367.4018 2311.310377 9321.632688
 477404.7087 1754.522744 7316.899768
 477440.3213 988.4283516 4651.225339
 477461.2374 312.173076 1593.938196
 477461.2375 -312.1723565 -1593.906575
 477440.3216 -988.4276614 -4651.193776
 477404.7092 -1754.522093 -7316.868115
 477367.4024 -2311.309809 -9321.601136
 477332.9457 -3133.21661 -10738.39972
 477338.2161 1197.838196 10893.29636
 477365.7267 790.9079358 9654.465333
 477403.7707 544.2120992 7564.048389
 477439.6524 313.8654714 4811.558298
 477461.139 100.8641598 1649.813539
 477461.1391 -100.86392 -1649.781979
 477439.6527 -313.8652344 -4811.526711
 477403.7712 -544.2118867 -7564.016839
 477365.7274 -790.907743 -9654.433761
 477338.2168 -1197.838049 -10893.26483
 477338.2161 -1197.838201 10893.29636
 477365.7267 -790.9079409 9654.46533
 477403.7707 -544.2121043 7564.048394
 477439.6524 -313.8654765 4811.558292
 477461.139 -100.8641649 1649.813546
 477461.1391 100.8639149 -1649.781986
 477439.6527 313.8652293 -4811.526705
 477403.7712 544.2118816 -7564.016844
 477365.7274 790.9077379 -9654.433758
 477338.2168 1197.838044 -10893.26483
 477332.945 -3133.217007 10738.43117
 477367.4018 -2311.310382 9321.63269
 477404.7087 -1754.522749 7316.899763
 477440.3213 -988.4283567 4651.225344
 477461.2374 -312.1730811 1593.93819
 477461.2375 312.1723514 -1593.906569
 477440.3216 988.4276562 -4651.193782
 477404.7092 1754.522088 -7316.868111
 477367.4024 2311.309804 -9321.601139
 477332.9457 3133.216605 -10738.39972
 0 0 0
 477361.6799 -5174.918787 8421.286308
 477402.1654 -3503.914044 6838.591269
 477441.2418 -1740.372273 4324.698715
 477461.4061 -538.7690739 1478.743218
 477461.4062 538.7679197 -1478.711563
 477441.2421 1740.371152 -4324.666998
 477402.1659 3503.913006 -6838.559659
 477361.6805 5174.917798 -8421.254552
 0 0 0
 0 0 0
 477311.8776 -9064.309419 7942.35899
 477393.3535 -5094.674493 6442.172478
 477443.3862 -2293.308376 3798.026563
 477461.5976 -788.6689035 1293.099552
 477461.5977 788.6674043 -1293.067769
 477443.3865 2293.306931 -3797.994833
 477393.354 5094.673206 -6442.140828
 477311.8782 9064.308208 -7942.327311
 0 0 0
 0 0 0
 0 0 0
 0 0 0
 477446.0705 -3190.717653 2634.466348
 477461.3785 -1210.170322 1019.222476
 477461.3786 1210.168606 -1019.190625
 477446.0707 3190.715947 -2634.434386
 0 0 0
 0 0 0
 0 0 0
 0 0 0
 0 0 0
 0 0 0
 477447.9662 3276.001887 2139.780835
 477461.6635 1243.316802 827.8394022
 477461.6636 -1243.315149 -827.8057336
 477447.9664 -3276.000244 -2139.747073
 0 0 0
 0 0 0
 0 0 0
 0 0 0
 477330.6788 9253.060522 6455.638919
 477406.4284 5249.670328 5235.872484
 477448.0402 2390.746074 3086.192049
 477462.1352 822.7323545 1050.65998
 477462.1352 -822.7309131 -1050.626415
 477448.0404 -2390.744684 -3086.158457
 477406.4288 -5249.669091 -5235.839084
 477330.6792 -9253.059357 -6455.605431
 0 0 0
 0 0 0
 477385.1852 5330.820782 6843.870307
 477417.8316 3632.823955 5557.696922
 477447.581 1823.651831 3514.677647
 477462.1501 567.5961932 1201.796461
 477462.1502 -567.5950853 -1201.762962
 477447.5813 -1823.650758 -3514.644213
 477417.832 -3632.822958 -5557.663428
 477385.1857 -5330.819834 -6843.836796
 0 0 0
 477373.4042 3216.301612 8726.951939
 477397.8286 2408.338463 7575.254071
 477423.4314 1837.747894 5946.523378
 477447.8932 1043.061139 3780.560669
 477462.1271 331.1204142 1295.688549
 477462.1272 -331.1197185 -1295.655149
 477447.8934 -1043.06047 -3780.527225
 477423.4318 -1837.747265 -5946.490015
 477397.8291 -2408.337911 -7575.220677
 477373.4048 -3216.301232 -8726.918732
 477380.3444 1230.176722 8852.384036
 477398.8247 824.6750059 7845.598984
 477424.0779 572.9756488 6147.586504
 477447.8639 332.8039337 3911.242892
 477462.104 107.4389528 1341.283594
 477462.104 -107.4387203 -1341.250213
 477447.8641 -332.8037046 -3911.209531
 477424.0783 -572.9754415 -6147.553121
 477398.8252 -824.6748197 -7845.565652
 477380.3451 -1230.176578 -8852.350724
 477380.3444 -1230.176726 8852.384035
 477398.8247 -824.6750102 7845.598987
 477424.0779 -572.9756531 6147.586498
 477447.8639 -332.803938 3911.242899
 477462.104 -107.4389572 1341.283585
 477462.104 107.438716 -1341.250204
 477447.8641 332.8037003 -3911.209539
 477424.0783 572.9754372 -6147.553115
 477398.8252 824.6748154 -7845.565655
 477380.3451 1230.176574 -8852.350722
 477373.4042 -3216.301617 8726.951939
 477397.8286 -2408.338467 7575.254068
 477423.4314 -1837.747898 5946.523382
 477447.8932 -1043.061144 3780.560662
 477462.1271 -331.1204185 1295.688556
 477462.1272 331.1197141 -1295.655157
 477447.8934 1043.060465 -3780.527219
 477423.4318 1837.747261 -5946.49002
 477397.8291 2408.337907 -7575.220674
 477373.4048 3216.301228 -8726.918732
 0 0 0
 477385.1852 -5330.820786 6843.870308
 477417.8316 -3632.82396 5557.696919
 477447.581 -1823.651836 3514.677651
 477462.1501 -567.5961976 1201.796455
 477462.1502 567.595081 -1201.762957
 477447.5813 1823.650753 -3514.644218
 477417.832 3632.822953 -5557.663425
 477385.1857 5330.81983 -6843.836798
 0 0 0
 0 0 0
 477330.6788 -9253.060526 6455.638918
 477406.4284 -5249.670332 5235.872485
 477448.0402 -2390.746079 3086.192046
 477462.1352 -822.7323589 1050.659983
 477462.1352 822.7309087 -1050.626419
 477448.0404 2390.744679 -3086.158455
 477406.4288 5249.669087 -5235.839086
 477330.6792 9253.059353 -6455.605431
 0 0 0
 0 0 0
 0 0 0
 0 0 0
 477447.9662 -3276.001891 2139.780835
 477461.6635 -1243.316806 827.8394007
 477461.6636 1243.315145 -827.805733
 477447.9664 3276.000239 -2139.747074
 0 0 0
 0 0 0
 0 0 0
 0 0 0
 0 0 0
 0 0 0
 477449.1303 3342.76279 1739.29978
 477461.8387 1269.283312 672.8839316
 477461.8388 -1269.281704 -672.848449
 477449.1305 -3342.761192 -1739.264185
 0 0 0
 0 0 0
 0 0 0
 0 0 0
 477342.5779 9400.83924 5249.648645
 477414.806 5371.300295 4257.163117
 477451.0335 2467.307262 2508.835372
 477462.4805 849.5240616 854.0287751
 477462.4805 -849.522662 -853.9933756
 477451.0337 -2467.305903 -2508.800004
 477414.8063 -5371.299095 -4257.127888
 477342.5783 -9400.838104 -5249.613367
 0 0 0
 0 0 0
 477400.4338 5453.112916 5564.229563
 477428.0195 3734.217176 4518.087199
 477451.7144 1889.330976 2856.943727
 477462.6357 590.3692674 976.8473182