# OOMMF OVF 2.0
#
# Segment count: 1
#
# Begin: Segment
# Begin: Header
#
# Title: Oxs_MinDriver::Magnetization
# Desc: Oxs vector field output
# Desc:  MIF source file: F:/Bogdan/UNIC/2022/Master_degree/Simulation_samples/Cylinder0_5000.mif
# Desc:  Iteration: 718, State id: 12618
# Desc:  Stage: 1, Stage iteration: 299
# Desc:  Stage simulation time: 0 s
# Desc:  Total simulation time: -2 s
# meshunit: m
# meshtype: rectangular
# xbase: -8.9999999999999995e-09
# ybase: -8.9999999999999995e-09
# zbase: -8.6999999999999998e-08
# xnodes: 10
# ynodes: 10
# znodes: 88
# xstepsize: 2.0000000000000001e-09
# ystepsize: 2.0000000000000001e-09
# zstepsize: 2.0000000000000001e-09
# xmin: -1e-08
# ymin: -1e-08
# zmin: -8.7999999999999994e-08
# xmax: 1e-08
# ymax: 1e-08
# zmax: 8.800000000000002e-08
# valuedim: 3
# valuelabels: Magnetization_x Magnetization_y Magnetization_z
# valueunits: A/m A/m A/m
#
# End: Header
#
# Begin: Data Text
 0 0 0
 0 0 0
 0 0 0
 295945.6638 34363.38996 373104.8014
 295046.4139 34094.70751 373840.9232
 292845.1709 33498.80379 375621.3616
 290150.9 32814.57458 377766.5023
 0 0 0
 0 0 0
 0 0 0
 0 0 0
 301643.8807 27574.30952 369083.3212
 301440.2057 27103.36503 369284.5533
 298930.3956 28669.95431 371201.4596
 296840.8383 29159.67562 372836.5612
 294176.9853 28922.87027 374960.3182
 291054.1326 27990.35284 377459.8036
 288054.3051 24578.07024 379990.1408
 284828.6926 21787.3905 382583.0586
 0 0 0
 0 0 0
 302650.2784 21056.10617 368688.6501
 302490.5476 21272.69333 368807.2836
 300903.5999 21818.84513 370071.3889
 298630.2046 22111.59831 371891.0451
 295704.5818 21990.00058 374228.6887
 292262.537 21314.99366 376961.7379
 288576.2837 19777.02344 379874.2807
 285068.2056 18508.23725 382577.3577
 0 0 0
 305330.1346 9434.51227 366955.5425
 304580.2391 12043.83375 367501.9664
 303842.6594 13047.94833 368077.7916
 302308.9338 13533.59636 369321.0279
 299970.7978 13740.80021 371215.008
 296901.5639 13685.47774 373676.3845
 293244.9228 13306.90014 376566.346
 289253.4794 12521.18309 379667.6388
 285417.9818 11301.80282 382597.3291
 282683.0411 7754.383357 384710.3315
 305294.0751 3581.644771 367089.3227
 305286.0838 4079.047 367090.7786
 304583.7641 4400.059193 367670.0171
 303050.1397 4578.264851 368932.9527
 300681.2152 4655.197742 370865.2144
 297548.3989 4640.717601 373383.5633
 293798.5678 4520.091226 376342.7183
 289688.2745 4266.208454 379518.6087
 285656.2433 3814.955247 382567.4164
 282445.6999 2940.902959 384951.4891
 305294.0751 -3581.644771 367089.3227
 305286.0838 -4079.047 367090.7786
 304583.7641 -4400.059193 367670.0171
 303050.1397 -4578.264851 368932.9527
 300681.2152 -4655.197742 370865.2144
 297548.3989 -4640.717601 373383.5633
 293798.5678 -4520.091226 376342.7183
 289688.2745 -4266.208454 379518.6087
 285656.2433 -3814.955247 382567.4164
 282445.6999 -2940.902959 384951.4891
 305330.1346 -9434.51227 366955.5425
 304580.2391 -12043.83375 367501.9664
 303842.6594 -13047.94833 368077.7916
 302308.9338 -13533.59636 369321.0279
 299970.7978 -13740.80021 371215.008
 296901.5639 -13685.47774 373676.3845
 293244.9228 -13306.90014 376566.346
 289253.4794 -12521.18309 379667.6388
 285417.9818 -11301.80282 382597.3291
 282683.0411 -7754.383357 384710.3315
 0 0 0
 302650.2784 -21056.10617 368688.6501
 302490.5476 -21272.69333 368807.2836
 300903.5999 -21818.84513 370071.3889
 298630.2046 -22111.59831 371891.0451
 295704.5818 -21990.00058 374228.6887
 292262.537 -21314.99366 376961.7379
 288576.2837 -19777.02344 379874.2807
 285068.2056 -18508.23725 382577.3577
 0 0 0
 0 0 0
 301643.8807 -27574.30952 369083.3212
 301440.2057 -27103.36503 369284.5533
 298930.3956 -28669.95431 371201.4596
 296840.8383 -29159.67562 372836.5612
 294176.9853 -28922.87027 374960.3182
 291054.1326 -27990.35284 377459.8036
 288054.3051 -24578.07024 379990.1408
 284828.6926 -21787.3905 382583.0586
 0 0 0
 0 0 0
 0 0 0
 0 0 0
 295945.6638 -34363.38996 373104.8014
 295046.4139 -34094.70751 373840.9232
 292845.1709 -33498.80379 375621.3616
 290150.9 -32814.57458 377766.5023
 0 0 0
 0 0 0
 0 0 0
 0 0 0
 0 0 0
 0 0 0
 291165.668 31100.96521 377130.1566
 290349.4724 30690.80979 377792.4422
 288244.3608 29952.85481 379459.993
 285690.3965 29145.34399 381449.1022
 0 0 0
 0 0 0
 0 0 0
 0 0 0
 296765.3574 25450.35645 373168.1568
 296576.8929 24686.242 373369.2641
 294034.4175 26120.98534 375277.6662
 291998.0695 26608.80286 376830.1611
 289418.9191 26306.24736 378835.7717
 286437.1095 25248.70615 381166.8354
 283660.1313 21687.98901 383455.9066
 280660.8783 18690.05208 385813.4583
 0 0 0
 0 0 0
 297571.4381 19393.13758 372890.0867
 297471.5302 19574.63914 372960.3109
 295948.9079 20097.36453 374141.9666
 293736.5958 20391.15748 375865.5135
 290876.9967 20234.90388 378091.2492
 287524.5543 19473.76203 380686.5831
 283972.7027 17795.11823 383424.9721
 280693.1714 16351.47455 385896.1571
 0 0 0
 300361.9788 8519.816858 371055.2057
 299481.8071 10988.68006 371701.1803
 298791.8734 12037.34106 372223.5755
 297335.3669 12541.179 373371.4902
 295058.9829 12750.8304 375165.9422
 292043.5563 12676.9809 377520.4984
 288451.4122 12253.08482 380286.0976
 284567.5184 11392.22741 383227.6293
 280969.8215 10062.57989 385910.061
 278687.5092 6476.533742 387637.9729
 300186.5508 3281.062479 371280.407
 300155.0845 3738.1872 371301.525
 299528.2634 4067.439006 371803.9089
 298072.9034 4253.702833 372969.5987
 295763.151 4331.932215 374802.9671
 292678.3395 4311.643167 377217.0073
 288983.5368 4177.115987 380056.4938
 284966.327 3899.799559 383080.7426
 281128.6014 3411.993845 385910.5325
 278304.5986 2506.941184 387958.9372
 300186.5508 -3281.062479 371280.407
 300155.0845 -3738.1872 371301.525
 299528.2634 -4067.439006 371803.9089
 298072.9034 -4253.702833 372969.5987
 295763.151 -4331.932215 374802.9671
 292678.3395 -4311.643167 377217.0073
 288983.5368 -4177.115987 380056.4938
 284966.327 -3899.799559 383080.7426
 281128.6014 -3411.993845 385910.5325
 278304.5986 -2506.941184 387958.9372
 300361.9788 -8519.816858 371055.2057
 299481.8071 -10988.68006 371701.1803
 298791.8734 -12037.34106 372223.5755
 297335.3669 -12541.179 373371.4902
 295058.9829 -12750.8304 375165.9422
 292043.5563 -12676.9809 377520.4984
 288451.4122 -12253.08482 380286.0976
 284567.5184 -11392.22741 383227.6293
 280969.8215 -10062.57989 385910.061
 278687.5092 -6476.533742 387637.9729
 0 0 0
 297571.4381 -19393.13758 372890.0867
 297471.5302 -19574.63914 372960.3109
 295948.9079 -20097.36453 374141.9666
 293736.5958 -20391.15748 375865.5135
 290876.9967 -20234.90388 378091.2492
 287524.5543 -19473.76203 380686.5831
 283972.7027 -17795.11823 383424.9721
 280693.1714 -16351.47455 385896.1571
 0 0 0
 0 0 0
 296765.3574 -25450.35645 373168.1568
 296576.8929 -24686.242 373369.2641
 294034.4175 -26120.98534 375277.6662
 291998.0695 -26608.80286 376830.1611
 289418.9191 -26306.24736 378835.7717
 286437.1095 -25248.70615 381166.8354
 283660.1313 -21687.98901 383455.9066
 280660.8783 -18690.05208 385813.4583
 0 0 0
 0 0 0
 0 0 0
 0 0 0
 291165.668 -31100.96521 377130.1566
 290349.4724 -30690.80979 377792.4422
 288244.3608 -29952.85481 379459.993
 285690.3965 -29145.34399 381449.1022
 0 0 0
 0 0 0
 0 0 0
 0 0 0
 0 0 0
 0 0 0
 283858.468 27027.90125 382969.6254
 283064.9054 26455.0705 383596.4805
 281073.2742 25545.06975 385119.6376
 278692.2972 24611.95187 386906.6122
 0 0 0
 0 0 0
 0 0 0
 0 0 0
 289393.5026 22766.52317 379084.3671
 289069.5591 21738.94639 379391.7231
 286479.6905 22769.59013 381290.9703
 284464.5061 23078.25739 382778.278
 282005.2456 22638.97276 384619.7988
 279246.7087 21481.85122 386693.2596
 276778.5931 18019.31794 388639.6607
 274121.4269 14998.44404 390646.0819
 0 0 0
 0 0 0
 289963.4348 17232.50352 378940.7851
 289743.8167 17275.62322 379106.7723
 288178.7454 17638.45576 380281.1682
 285998.6259 17828.27332 381914.6631
 283251.2033 17579.48331 383968.2134
 280103.182 16725.64757 386308.5961
 276856.6897 14979.89103 388713.0658
 273938.2285 13460.44596 390830.5703
 0 0 0
 292895.4913 7553.147677 376997.417
 291758.1863 9692.279761 377829.448
 290923.9549 10624.78578 378447.1399
 289434.2263 11057.84222 379575.3207
 287195.7967 11214.78039 381267.1955
 284283.7967 11088.35305 383447.0532
 280877.3017 10606.16472 385962.8505
 277293.172 9692.471317 388569.7158
 274139.6254 8358.842003 390831.7629
 272371.5695 5083.356969 392122.1225
 292615.2253 2916.77065 377279.3311
 292346.7346 3299.185113 377484.2691
 291593.3614 3592.942421 378063.8487
 290112.4305 3759.206925 379199.8382
 287842.0816 3821.476359 380925.4569
 284855.5257 3784.240706 383164.2994
 281335.9253 3630.250684 385757.4234
 277606.751 3333.966116 388452.3752
 274205.2142 2840.401192 390864.8154
 271888.4078 1981.063989 392485.2104
 292615.2253 -2916.77065 377279.3311
 292346.7346 -3299.185113 377484.2691
 291593.3614 -3592.942421 378063.8487
 290112.4305 -3759.206925 379199.8382
 287842.0816 -3821.476359 380925.4569
 284855.5257 -3784.240706 383164.2994
 281335.9253 -3630.250684 385757.4234
 277606.751 -3333.966116 388452.3752
 274205.2142 -2840.401192 390864.8154
 271888.4078 -1981.063989 392485.2104
 292895.4913 -7553.147677 376997.417
 291758.1863 -9692.279761 377829.448
 290923.9549 -10624.78578 378447.1399
 289434.2263 -11057.84222 379575.3207
 287195.7967 -11214.78039 381267.1955
 284283.7967 -11088.35305 383447.0532
 280877.3017 -10606.16472 385962.8505
 277293.172 -9692.471317 388569.7158
 274139.6254 -8358.842003 390831.7629
 272371.5695 -5083.356969 392122.1225
 0 0 0
 289963.4348 -17232.50352 378940.7851
 289743.8167 -17275.62322 379106.7723
 288178.7454 -17638.45576 380281.1682
 285998.6259 -17828.27332 381914.6631
 283251.2033 -17579.48331 383968.2134
 280103.182 -16725.64757 386308.5961
 276856.6897 -14979.89103 388713.0658
 273938.2285 -13460.44596 390830.5703
 0 0 0
 0 0 0
 289393.5026 -22766.52317 379084.3671
 289069.5591 -21738.94639 379391.7231
 286479.6905 -22769.59013 381290.9703
 284464.5061 -23078.25739 382778.278
 282005.2456 -22638.97276 384619.7988
 279246.7087 -21481.85122 386693.2596
 276778.5931 -18019.31794 388639.6607
 274121.4269 -14998.44404 390646.0819
 0 0 0
 0 0 0
 0 0 0
 0 0 0
 283858.468 -27027.90125 382969.6254
 283064.9054 -26455.0705 383596.4805
 281073.2742 -25545.06975 385119.6376
 278692.2972 -24611.95187 386906.6122
 0 0 0
 0 0 0
 0 0 0
 0 0 0
 0 0 0
 0 0 0
 275064.7913 23025.23858 389590.9011
 274294.4767 22304.05999 390175.525
 272414.9212 21242.81978 391549.1344
 270190.5073 20214.60492 393141.6167
 0 0 0
 0 0 0
 0 0 0
 0 0 0
 280544.0269 20088.82243 385828.1476
 280085.3044 18840.49647 386224.1956
 277456.3324 19413.65814 388088.862
 275463.1018 19484.1693 389502.6546
 273135.3409 18896.96644 391167.3063
 270613.5581 17689.53295 392972.3322
 268462.836 14435.01595 394577.2514
 266121.2265 11502.00533 396256.316
 0 0 0
 0 0 0
 280929.9679 15073.59123 385775.8563
 280559.4683 14946.95143 386050.3137
 278911.0253 15082.69073 387237.6837
 276749.8125 15107.81708 388784.2158
 274139.79 14745.56769 390642.8229
 271249.4766 13831.96586 392688.5145
 268360.4725 12108.01856 394725.1246
 265795.0044 10612.10048 396500.0256
 0 0 0
 283987.7609 6659.694955 383768.7734
 282614.7294 8424.071544 384746.4373
 281574.5702 9171.291387 385491.2712
 279986.7406 9473.443513 386638.7852
 277766.5359 9535.84967 388235.3544
 274991.7805 9340.482091 390210.3886
 271847.5461 8815.588111 392419.5056
 268649.7713 7903.101349 394634.9106
 265965.0691 6661.290389 396472.0425
 264629.8688 3819.827304 397401.9537
 283641.6958 2571.190357 384073.7542
 283121.6843 2867.010734 384455.1514
 282154.1018 3099.898858 385164.0232
 280573.1966 3223.88921 386316.1389
 278321.0588 3255.514031 387941.5692
 275470.4298 3195.330474 389971.4136
 272212.2603 3026.21886 392253.9976
 268875.8575 2728.628489 394550.6294
 265967.1438 2263.872534 396520.144
 264093.8888 1492.742201 397773.8816
 283641.6958 -2571.190357 384073.7542
 283121.6843 -2867.010734 384455.1514
 282154.1018 -3099.898858 385164.0232
 280573.1966 -3223.88921 386316.1389
 278321.0588 -3255.514031 387941.5692
 275470.4298 -3195.330474 389971.4136
 272212.2603 -3026.21886 392253.9976
 268875.8575 -2728.628489 394550.6294
 265967.1438 -2263.872534 396520.144
 264093.8888 -1492.742201 397773.8816
 283987.7609 -6659.694955 383768.7734
 282614.7294 -8424.071544 384746.4373
 281574.5702 -9171.291387 385491.2712
 279986.7406 -9473.443513 386638.7852
 277766.5359 -9535.84967 388235.3544
 274991.7805 -9340.482091 390210.3886
 271847.5461 -8815.588111 392419.5056
 268649.7713 -7903.101349 394634.9106
 265965.0691 -6661.290389 396472.0425
 264629.8688 -3819.827304 397401.9537
 0 0 0
 280929.9679 -15073.59123 385775.8563
 280559.4683 -14946.95143 386050.3137
 278911.0253 -15082.69073 387237.6837
 276749.8125 -15107.81708 388784.2158
 274139.79 -14745.56769 390642.8229
 271249.4766 -13831.96586 392688.5145
 268360.4725 -12108.01856 394725.1246
 265795.0044 -10612.10048 396500.0256
 0 0 0
 0 0 0
 280544.0269 -20088.82243 385828.1476
 280085.3044 -18840.49647 386224.1956
 277456.3324 -19413.65814 388088.862
 275463.1018 -19484.1693 389502.6546
 273135.3409 -18896.96644 391167.3063
 270613.5581 -17689.53295 392972.3322
 268462.836 -14435.01595 394577.2514
 266121.2265 -11502.00533 396256.316
 0 0 0
 0 0 0
 0 0 0
 0 0 0
 275064.7913 -23025.23858 389590.9011
 274294.4767 -22304.05999 390175.525
 272414.9212 -21242.81978 391549.1344
 270190.5073 -20214.60492 393141.6167
 0 0 0
 0 0 0
 0 0 0
 0 0 0
 0 0 0
 0 0 0
 265519.6695 19427.91388 396350.5173
 264784.6441 18589.89027 396882.0726
 263017.1798 17415.7096 398108.688
 260935.4556 16326.63435 399522.2151
 0 0 0
 0 0 0
 0 0 0
 0 0 0
 270924.6861 17638.68764 392760.1844
 270368.9928 16218.20726 393204.0803
 267726.6437 16377.52005 395001.3828
 265772.0102 16224.42536 396325.4697
 263581.6544 15512.79831 397813.9463
 261288.2809 14292.85125 399369.5281
 259435.3173 11278.12966 400671.9247
 257362.7085 8478.396527 402075.1477
 0 0 0
 0 0 0
 271180.6234 13107.03628 392760.9278
 270686.7825 12823.55691 393110.7903
 268969.4003 12733.9101 394290.731
 266838.5704 12590.08842 395740.4937
 264379.8226 12124.91526 397401.7704
 261756.0559 11185.31498 399162.2818
 259212.1948 9533.796432 400861.5922
 256955.3254 8109.995094 402343.2117
 0 0 0
 274331.2334 5867.904197 390742.6434
 272779.842 7280.679284 391803.5487
 271557.5133 7838.317746 392640.9926
 269873.5334 7997.201141 393797.1458
 267678.2053 7955.607736 395293.5087
 265061.0969 7694.613175 397058.2818
 262203.5465 7148.231194 398961.2441
 259394.8624 6274.101645 400807.6999
 257129.9912 5163.125517 402280.227
 256141.3429 2754.534549 402934.1091
 273944.1195 2263.980124 391051.6144
 273222.7117 2477.676491 391554.6989
 272053.5649 2645.92706 392366.8286
 270366.7745 2721.324163 393530.5235
 268137.183 2717.965092 395053.0788
 265446.3846 2635.394589 396866.6563
 262482.6098 2458.236542 398834.186
 259552.974 2172.746176 400748.5548
 257097.1527 1752.917308 402330.5266
 255580.5114 1078.750852 403298.0409
 273944.1195 -2263.980124 391051.6144
 273222.7117 -2477.676491 391554.6989
 272053.5649 -2645.92706 392366.8286
 270366.7745 -2721.324163 393530.5235
 268137.183 -2717.965092 395053.0788
 265446.3846 -2635.394589 396866.6563
 262482.6098 -2458.236542 398834.186
 259552.974 -2172.746176 400748.5548
 257097.1527 -1752.917308 402330.5266
 255580.5114 -1078.750852 403298.0409
 274331.2334 -5867.904197 390742.6434
 272779.842 -7280.679284 391803.5487
 271557.5133 -7838.317746 392640.9926
 269873.5334 -7997.201141 393797.1458
 267678.2053 -7955.607736 395293.5087
 265061.0969 -7694.613175 397058.2818
 262203.5465 -7148.231194 398961.2441
 259394.8624 -6274.101645 400807.6999
 257129.9912 -5163.125517 402280.227
 256141.3429 -2754.534549 402934.1091
 0 0 0
 271180.6234 -13107.03628 392760.9278
 270686.7825 -12823.55691 393110.7903
 268969.4003 -12733.9101 394290.731
 266838.5704 -12590.08842 395740.4937
 264379.8226 -12124.91526 397401.7704
 261756.0559 -11185.31498 399162.2818
 259212.1948 -9533.796432 400861.5922
 256955.3254 -8109.995094 402343.2117
 0 0 0
 0 0 0
 270924.6861 -17638.68764 392760.1844
 270368.9928 -16218.20726 393204.0803
 267726.6437 -16377.52005 395001.3828
 265772.0102 -16224.42536 396325.4697
 263581.6544 -15512.79831 397813.9463
 261288.2809 -14292.85125 399369.5281
 259435.3173 -11278.12966 400671.9247
 257362.7085 -8478.396527 402075.1477
 0 0 0
 0 0 0
 0 0 0
 0 0 0
 265519.6695 -19427.91388 396350.5173
 264784.6441 -18589.89027 396882.0726
 263017.1798 -17415.7096 398108.688
 260935.4556 -16326.63435 399522.2151
 0 0 0
 0 0 0
 0 0 0
 0 0 0
 0 0 0
 0 0 0
 255751.9283 16338.82631 402859.6098
 255064.8375 15418.66972 403331.2095
 253412.0363 14170.73141 404417.3606
 251464.6369 13049.93828 405668.7155
 0 0 0
 0 0 0
 0 0 0
 0 0 0
 261047.964 15490.67343 399482.0031
 260435.9652 13946.28125 399938.0959
 257813.2764 13765.4501 401640.0107
 255918.9191 13430.05501 402861.0329
 253870.7622 12627.75293 404180.7111
 251792.1261 11420.67812 405514.691
 250209.9771 8642.816364 406561.3611
 248365.6157 5988.195264 407738.3153
 0 0 0
 0 0 0
 261214.3894 11393.2085 399511.0873
 260639.7064 10982.36448 399897.74
 258890.5816 10701.48686 401039.9185
 256813.8235 10413.72826 402380.5234
 254514.6202 9869.376507 403852.4171
 252146.1861 8928.520274 405357.1927
 249913.5041 7369.501077 406768.7331
 247918.6028 6033.216752 408009.6052
 0 0 0
 264416.9257 5182.158779 397528.2454
 262747.5291 6290.649613 398617.6551
 261397.7863 6681.676868 399497.7144
 259654.7029 6712.387799 400632.3133
 257507.6402 6578.442898 402017.9233
 255059.824 6265.181839 403580.3575
 252482.8904 5714.1595 405205.6388
 250029.1488 4894.622334 406734.9736
 248119.6762 3917.401764 407913.1667
 247407.7275 1892.334994 408359.7761
 264004.449 1998.095392 397831.0318
 263142.9578 2141.03592 398400.6413
 261826.7668 2251.590113 399266.2593
 260069.2702 2282.392296 400413.0825
 257885.0675 2247.253552 401823.485
 255367.7745 2146.529689 403428.511
 252696.0496 1967.215352 405108.2669
 250141.5603 1700.044383 406691.7518
 248071.878 1327.647372 407958.8852
 246837.9658 743.2284143 408708.1325
 264004.449 -1998.095392 397831.0318
 263142.9578 -2141.03592 398400.6413
 261826.7668 -2251.590113 399266.2593
 260069.2702 -2282.392296 400413.0825
 257885.0675 -2247.253552 401823.485
 255367.7745 -2146.529689 403428.511
 252696.0496 -1967.215352 405108.2669
 250141.5603 -1700.044383 406691.7518
 248071.878 -1327.647372 407958.8852
 246837.9658 -743.2284143 408708.1325
 264416.9257 -5182.158779 397528.2454
 262747.5291 -6290.649613 398617.6551
 261397.7863 -6681.676868 399497.7144
 259654.7029 -6712.387799 400632.3133
 257507.6402 -6578.442898 402017.9233
 255059.824 -6265.181839 403580.3575
 252482.8904 -5714.1595 405205.6388
 250029.1488 -4894.622334 406734.9736
 248119.6762 -3917.401764 407913.1667
 247407.7275 -1892.334994 408359.7761
 0 0 0
 261214.3894 -11393.2085 399511.0873
 260639.7064 -10982.36448 399897.74
 258890.5816 -10701.48686 401039.9185
 256813.8235 -10413.72826 402380.5234
 254514.6202 -9869.376507 403852.4171
 252146.1861 -8928.520274 405357.1927
 249913.5041 -7369.501077 406768.7331
 247918.6028 -6033.216752 408009.6052
 0 0 0
 0 0 0
 261047.964 -15490.67343 399482.0031
 260435.9652 -13946.28125 399938.0959
 257813.2764 -13765.4501 401640.0107
 255918.9191 -13430.05501 402861.0329
 253870.7622 -12627.75293 404180.7111
 251792.1261 -11420.67812 405514.691
 250209.9771 -8642.816364 406561.3611
 248365.6157 -5988.195264 407738.3153
 0 0 0
 0 0 0
 0 0 0
 0 0 0
 255751.9283 -16338.82631 402859.6098
 255064.8375 -15418.66972 403331.2095
 253412.0363 -14170.73141 404417.3606
 251464.6369 -13049.93828 405668.7155
 0 0 0
 0 0 0
 0 0 0
 0 0 0
 0 0 0
 0 0 0
 246133.8544 13754.15873 408901.9689
 245505.4403 12782.43585 409311.079
 243970.3711 11493.79497 410266.038
 242151.796 10363.42907 411372.068
 0 0 0
 0 0 0
 0 0 0
 0 0 0
 251280.5429 13651.57238 405762.9784
 250647.2517 12025.47346 406205.877
 248076.8309 11579.70472 407793.6582
 246263.5633 11106.84852 408904.3489
 244361.3596 10245.7267 410066.3633
 242483.5062 9067.374134 411207.251
 241145.4995 6508.782106 412041.691
 239497.033 3995.812655 413033.9889
 0 0 0
 0 0 0
 251385.0864 9935.010335 405806.241
 250770.3781 9428.352267 406198.4674
 249030.0817 8998.514224 407277.4441
 247032.8154 8600.042868 408500.5492
 244897.9964 8001.557487 409796.0685
 242767.357 7075.412007 411078.8491
 240809.2354 5612.147381 412251.4855
 239036.4758 4362.952763 413296.9867
 0 0 0
 254597.5229 4596.650388 403894.5945
 252863.4186 5452.33253 404971.894
 251444.1566 5707.017364 405851.1271
 249688.1721 5634.178233 406934.8155
 247617.0469 5427.321807 408201.1925
 245344.5926 5077.253172 409575.5409
 243029.9247 4532.694383 410959.5864
 240888.0287 3771.027171 412226.4042
 239275.0235 2914.694547 413171.6822
 238786.0715 1211.618821 413462.9552
 254169.9803 1771.311224 404186.0399
 253223.7135 1856.295818 404779.1699
 251822.4571 1919.423598 405652.1135
 250042.2503 1913.636331 406751.8683
 247931.9584 1853.030222 408041.887
 245595.0695 1739.327309 409453.1815
 243197.3103 1561.79184 410882.5871
 240972.8749 1314.358194 412191.9666
 239224.7975 985.4796013 413209.8697
 238216.7154 478.2736913 413792.7489
 254169.9803 -1771.311224 404186.0399
 253223.7135 -1856.295818 404779.1699
 251822.4571 -1919.423598 405652.1135
 250042.2503 -1913.636331 406751.8683
 247931.9584 -1853.030222 408041.887
 245595.0695 -1739.327309 409453.1815
 243197.3103 -1561.79184 410882.5871
 240972.8749 -1314.358194 412191.9666
 239224.7975 -985.4796013 413209.8697
 238216.7154 -478.2736913 413792.7489
 254597.5229 -4596.650388 403894.5945
 252863.4186 -5452.33253 404971.894
 251444.1566 -5707.017364 405851.1271
 249688.1721 -5634.178233 406934.8155
 247617.0469 -5427.321807 408201.1925
 245344.5926 -5077.253172 409575.5409
 243029.9247 -4532.694383 410959.5864
 240888.0287 -3771.027171 412226.4042
 239275.0235 -2914.694547 413171.6822
 238786.0715 -1211.618821 413462.9552
 0 0 0
 251385.0864 -9935.010335 405806.241
 250770.3781 -9428.352267 406198.4674
 249030.0817 -8998.514224 407277.4441
 247032.8154 -8600.042868 408500.5492
 244897.9964 -8001.557487 409796.0685
 242767.357 -7075.412007 411078.8491
 240809.2354 -5612.147381 412251.4855
 239036.4758 -4362.952763 413296.9867
 0 0 0
 0 0 0
 251280.5429 -13651.57238 405762.9784
 250647.2517 -12025.47346 406205.877
 248076.8309 -11579.70472 407793.6582
 246263.5633 -11106.84852 408904.3489
 244361.3596 -10245.7267 410066.3633
 242483.5062 -9067.374134 411207.251
 241145.4995 -6508.782106 412041.691
 239497.033 -3995.812655 413033.9889
 0 0 0
 0 0 0
 0 0 0
 0 0 0
 246133.8544 -13754.15873 408901.9689
 245505.4403 -12782.43585 409311.079
 243970.3711 -11493.79497 410266.038
 242151.796 -10363.42907 411372.068
 0 0 0
 0 0 0
 0 0 0
 0 0 0
 0 0 0
 0 0 0
 236917.6035 11623.42769 414375.2121
 236355.8381 10624.116 414722.6992
 234940.431 9319.872488 415557.4631
 233246.025 8195.517184 416534.5083
 0 0 0
 0 0 0
 0 0 0
 0 0 0
 241876.9898 12097.56524 411486.3814
 241249.9776 10423.53035 411900.0724
 238759.6303 9778.580162 413364.3545
 237044.3823 9207.497827 414363.4324
 235290.0907 8313.232754 415380.9513
 233599.913 7172.575868 416355.0241
 232481.8302 4810.376594 417014.3045
 231003.7152 2429.174249 417855.542
 0 0 0
 0 0 0
 241937.6042 8710.490631 411536.3828
 241316.4474 8135.640613 411912.6787
 239620.141 7595.944107 412912.0499
 237723.9295 7117.880381 414015.1452
 235755.4658 6486.489941 415149.5599
 233844.4865 5584.464194 416242.0464
 232128.0792 4212.317049 417217.7879
 230545.4358 3043.476797 418104.545
 0 0 0
 245121.7161 4100.865356 409719.9025
 243366.1466 4751.087084 410758.1005
 241927.1147 4898.338961 411605.5742
 240200.2262 4746.622743 412617.489
 238229.4765 4486.3467 413761.357
 236134.4939 4113.101239 414964.4015
 234060.9738 3581.585739 416142.4084
 232190.5723 2874.879158 417194.3725
 230825.7048 2121.956409 417955.5749
 230518.8366 682.1248794 418129.731
 244685.9221 1579.453615 409997.7758
 243699.4379 1618.292137 410584.7493
 242267.6826 1644.106796 411431.0856
 240509.7406 1610.136655 412461.3236
 238499.1327 1530.659 413627.4798
 236344.9164 1408.641759 414862.5887
 234198.7687 1235.222025 416078.4568
 232260.726 1006.581928 417164.0124
 230780.4181 715.2247049 417985.3567
 229955.4323 272.2153433 418440.3139
 244685.9221 -1579.453615 409997.7758
 243699.4379 -1618.292137 410584.7493
 242267.6826 -1644.106796 411431.0856
 240509.7406 -1610.136655 412461.3236
 238499.1327 -1530.659 413627.4798
 236344.9164 -1408.641759 414862.5887
 234198.7687 -1235.222025 416078.4568
 232260.726 -1006.581928 417164.0124
 230780.4181 -715.2247049 417985.3567
 229955.4323 -272.2153433 418440.3139
 245121.7161 -4100.865356 409719.9025
 243366.1466 -4751.087084 410758.1005
 241927.1147 -4898.338961 411605.5742
 240200.2262 -4746.622743 412617.489
 238229.4765 -4486.3467 413761.357
 236134.4939 -4113.101239 414964.4015
 234060.9738 -3581.585739 416142.4084
 232190.5723 -2874.879158 417194.3725
 230825.7048 -2121.956409 417955.5749
 230518.8366 -682.1248794 418129.731
 0 0 0
 241937.6042 -8710.490631 411536.3828
 241316.4474 -8135.640613 411912.6787
 239620.141 -7595.944107 412912.0499
 237723.9295 -7117.880381 414015.1452
 235755.4658 -6486.489941 415149.5599
 233844.4865 -5584.464194 416242.0464
 232128.0792 -4212.317049 417217.7879
 230545.4358 -3043.476797 418104.545
 0 0 0
 0 0 0
 241876.9898 -12097.56524 411486.3814
 241249.9776 -10423.53035 411900.0724
 238759.6303 -9778.580162 413364.3545
 237044.3823 -9207.497827 414363.4324
 235290.0907 -8313.232754 415380.9513
 233599.913 -7172.575868 416355.0241
 232481.8302 -4810.376594 417014.3045
 231003.7152 -2429.174249 417855.542
 0 0 0
 0 0 0
 0 0 0
 0 0 0
 236917.6035 -11623.42769 414375.2121
 236355.8381 -10624.116 414722.6992
 234940.431 -9319.872488 415557.4631
 233246.025 -8195.517184 416534.5083
 0 0 0
 0 0 0
 0 0 0
 0 0 0
 0 0 0
 0 0 0
 228263.9634 9880.304615 419249.1072
 227773.8525 8870.868882 419538.1402
 226478.0913 7568.718111 420264.5119
 224902.9499 6460.58121 421128.0035
 0 0 0
 0 0 0
 0 0 0
 0 0 0
 233005.3266 10793.1199 416610.0066
 232404.9512 9096.467334 416985.6883
 230015.8416 8305.656788 418324.7542
 228410.5151 7667.525467 419215.5972
 226803.7791 6759.087037 420102.6444
 225288.9055 5660.336636 420933.1787
 224369.177 3470.85861 421447.8578
 223040.7941 1209.254746 422164.9123
 0 0 0
 0 0 0
 233033.2991 7688.765543 416663.2161
 232430.9753 7067.717331 417010.5039
 230805.4796 6450.263293 417922.3564
 229025.9204 5918.034242 418908.0758
 227223.02 5269.891715 419897.3669
 225514.6741 4396.892633 420827.3641
 224012.0741 3108.054072 421640.6076
 222594.0163 2010.935959 422397.5987
 0 0 0
 236157.4494 3682.707677 414955.3808
 234413.4028 4167.865963 415938.5253
 232993.0121 4232.202552 416735.187
 231328.0517 4022.62891 417663.767
 229475.8078 3725.350486 418687.051
 227557.193 3339.524376 419736.1586
 225704.5703 2824.542421 420739.0405
 224071.2919 2167.534256 421615.0249
 222916.2929 1500.890371 422229.7301
 222760.1607 273.5782342 422314.7017
 235717.8494 1417.758451 415219.1671
 234724.705 1420.432682 415781.3927
 233305.0067 1417.602222 416579.6869
 231605.014 1362.751808 417527.4024
 229713.4855 1270.061361 418571.3474
 227740.7028 1143.399164 419648.3483
 225824.354 975.3371932 420683.1125
 224135.1975 763.6452202 421585.936
 222879.9601 503.7375007 422251.277
 222205.9215 113.2741114 422606.6575
 235717.8494 -1417.758451 415219.1671
 234724.705 -1420.432682 415781.3927
 233305.0067 -1417.602222 416579.6869
 231605.014 -1362.751808 417527.4024
 229713.4855 -1270.061361 418571.3474
 227740.7028 -1143.399164 419648.3483
 225824.354 -975.3371932 420683.1125
 224135.1975 -763.6452202 421585.936
 222879.9601 -503.7375007 422251.277
 222205.9215 -113.2741114 422606.6575
 236157.4494 -3682.707677 414955.3808
 234413.4028 -4167.865963 415938.5253
 232993.0121 -4232.202552 416735.187
 231328.0517 -4022.62891 417663.767
 229475.8078 -3725.350486 418687.051
 227557.193 -3339.524376 419736.1586
 225704.5703 -2824.542421 420739.0405
 224071.2919 -2167.534256 421615.0249
 222916.2929 -1500.890371 422229.7301
 222760.1607 -273.5782342 422314.7017
 0 0 0
 233033.2991 -7688.765543 416663.2161
 232430.9753 -7067.717331 417010.5039
 230805.4796 -6450.263293 417922.3564
 229025.9204 -5918.034242 418908.0758
 227223.02 -5269.891715 419897.3669
 225514.6741 -4396.892633 420827.3641
 224012.0741 -3108.054072 421640.6076
 222594.0163 -2010.935959 422397.5987
 0 0 0
 0 0 0
 233005.3266 -10793.1199 416610.0066
 232404.9512 -9096.467334 416985.6883
 230015.8416 -8305.656788 418324.7542
 228410.5151 -7667.525467 419215.5972
 226803.7791 -6759.087037 420102.6444
 225288.9055 -5660.336636 420933.1787
 224369.177 -3470.85861 421447.8578
 223040.7941 -1209.254746 422164.9123
 0 0 0
 0 0 0
 0 0 0
 0 0 0
 228263.9634 -9880.304615 419249.1072
 227773.8525 -8870.868882 419538.1402
 226478.0913 -7568.718111 420264.5119
 224902.9499 -6460.58121 421128.0035
 0 0 0
 0 0 0
 0 0 0
 0 0 0
 0 0 0
 0 0 0
 220265.4034 8458.118519 423536.8739
 219849.1935 7450.559565 423771.9818
 218670.9351 6162.179369 424401.8391
 217209.4375 5076.384559 425166.0404
 0 0 0
 0 0 0
 0 0 0
 0 0 0
 224767.362 9700.664736 421138.2212
 224207.6973 7999.38579 421472.1694
 221934.099 7104.06686 422689.7908
 220445.5626 6422.346806 423478.8999
 218983.5925 5512.914978 424249.5319
 217632.0332 4457.121848 424956.8254
 216891.3399 2418.000823 425351.8206
 215695.5173 263.4599336 425966.2495
 0 0 0
 0 0 0
 224769.6573 6837.919115 421193.2042
 224203.8744 6187.232877 421504.7
 222667.5696 5516.746776 422327.5864
 221014.1046 4949.68851 423202.2418
 219373.3486 4296.278611 424062.1973
 217851.8305 3454.251259 424853.527
 216539.4241 2240.032489 425532.0568
 215265.269 1205.967886 426182.2156
 0 0 0
 227809.8213 3330.301555 419599.1727
 226101.0597 3683.49476 420519.4573
 224726.7322 3684.535077 421255.4941
 223146.6965 3433.662337 422096.7106
 221424.2986 3112.067038 423005.2793
 219678.1597 2721.301916 423917.4117