# OOMMF OVF 2.0
#
# Segment count: 1
#
# Begin: Segment
# Begin: Header
#
# Title: Oxs_MinDriver::Magnetization
# Desc: Oxs vector field output
# Desc:  MIF source file: F:/Bogdan/UNIC/2022/Master_degree/Simulation_samples/Cylinder0_5000.mif
# Desc:  Iteration: 1508, State id: 18688
# Desc:  Stage: 3, Stage iteration: 759
# Desc:  Stage simulation time: 0 s
# Desc:  Total simulation time: -2 s
# meshunit: m
# meshtype: rectangular
# xbase: -8.9999999999999995e-09
# ybase: -8.9999999999999995e-09
# zbase: -8.6999999999999998e-08
# xnodes: 10
# ynodes: 10
# znodes: 88
# xstepsize: 2.0000000000000001e-09
# ystepsize: 2.0000000000000001e-09
# zstepsize: 2.0000000000000001e-09
# xmin: -1e-08
# ymin: -1e-08
# zmin: -8.7999999999999994e-08
# xmax: 1e-08
# ymax: 1e-08
# zmax: 8.800000000000002e-08
# valuedim: 3
# valuelabels: Magnetization_x Magnetization_y Magnetization_z
# valueunits: A/m A/m A/m
#
# End: Header
#
# Begin: Data Text
 0 0 0
 0 0 0
 0 0 0
 477352.68 2190.638713 10074.28708
 477448.189 834.640603 3794.935469
 477448.1897 -834.6367246 -3794.84628
 477352.6819 -2190.634865 -10074.19735
 0 0 0
 0 0 0
 0 0 0
 0 0 0
 476559.3504 6554.973068 28637.19956
 476911.5019 3539.28275 22688.41368
 477273.7069 1504.910866 13394.59684
 477442.329 524.6098306 4518.693586
 477442.3298 -524.6069721 -4518.60502
 477273.7094 -1504.908147 -13394.50787
 476911.5062 -3539.280574 -22688.32402
 476559.3558 -6554.971143 -28637.10907
 0 0 0
 0 0 0
 476512.3263 3582.386601 29917.2313
 476881.4798 2416.125404 23453.95106
 477242.0718 1174.010766 14508.54647
 477438.7084 362.0641686 4901.012621
 477438.7093 -362.062326 -4900.92415
 477242.0745 -1174.009043 -14508.45778
 476881.4842 -2416.123914 -23453.86177
 476512.3319 -3582.385126 -29917.14118
 0 0 0
 475900.3851 2188.324121 38547.45183
 476361.5891 1527.04313 32390.98378
 476836.3559 1186.09404 24444.9221
 477224.474 669.875257 15107.08439
 477436.6833 211.7862798 5102.928297
 477436.6843 -211.785333 -5102.838801
 477224.4768 -669.8743661 -15106.9953
 476836.3605 -1186.093211 -24444.83219
 476361.5953 -1527.042329 -32390.89287
 475900.3925 -2188.323388 -38547.35955
 475874.1019 834.0784423 38923.19013
 476315.8292 529.5751546 33088.09023
 476814.8785 366.8106363 24885.90717
 477216.4668 213.0910879 15371.06753
 477435.769 68.73137672 5191.633778
 477435.77 -68.73103533 -5191.543725
 477216.4697 -213.0907932 -15370.97758
 476814.8832 -366.8103595 -24885.81707
 476315.8355 -529.5748607 -33087.99894
 475874.1095 -834.0781679 -38923.09774
 475874.1019 -834.0783763 38923.19013
 476315.8292 -529.5750886 33088.09023
 476814.8785 -366.8105701 24885.90717
 477216.4668 -213.0910216 15371.06753
 477435.769 -68.73131036 5191.63378
 477435.77 68.73110169 -5191.543726
 477216.4697 213.0908595 -15370.97758
 476814.8832 366.8104256 -24885.81707
 476315.8355 529.5749267 -33087.99894
 475874.1095 834.0782338 -38923.09774
 475900.3851 -2188.324056 38547.45183
 476361.5891 -1527.043064 32390.98378
 476836.3559 -1186.093974 24444.9221
 477224.474 -669.8751908 15107.08439
 477436.6833 -211.7862136 5102.928296
 477436.6843 211.7853992 -5102.838799
 477224.4768 669.8744323 -15106.9953
 476836.3605 1186.093277 -24444.83219
 476361.5953 1527.042395 -32390.89287
 475900.3925 2188.323454 -38547.35955
 0 0 0
 476512.3263 -3582.386535 29917.2313
 476881.4798 -2416.125338 23453.95106
 477242.0718 -1174.0107 14508.54647
 477438.7084 -362.0641027 4901.012623
 477438.7093 362.0623919 -4900.92415
 477242.0745 1174.009109 -14508.45778
 476881.4842 2416.12398 -23453.86177
 476512.3319 3582.385192 -29917.14118
 0 0 0
 0 0 0
 476559.3504 -6554.973002 28637.19956
 476911.5019 -3539.282685 22688.41368
 477273.7069 -1504.9108 13394.59684
 477442.329 -524.6097649 4518.693586
 477442.3298 524.6070378 -4518.605019
 477273.7094 1504.908213 -13394.50787
 476911.5062 3539.280639 -22688.32402
 476559.3558 6554.971209 -28637.10907
 0 0 0
 0 0 0
 0 0 0
 0 0 0
 477352.68 -2190.638648 10074.28708
 477448.189 -834.6405376 3794.935471
 477448.1897 834.63679 -3794.84628
 477352.6819 2190.634931 -10074.19735
 0 0 0
 0 0 0
 0 0 0
 0 0 0
 0 0 0
 0 0 0
 477376.1002 2293.34761 8869.655766
 477451.0632 870.264133 3405.315448
 477451.0639 -870.2604698 -3405.222913
 477376.102 -2293.343994 -8869.562683
 0 0 0
 0 0 0
 0 0 0
 0 0 0
 476710.5801 6967.88321 25890.9771
 476998.8017 3593.887609 20762.91001
 477304.8578 1440.274259 12242.12652
 477445.6822 504.464064 4151.793636
 477445.683 -504.4612955 -4151.701812
 477304.8601 -1440.271623 -12242.03435
 476998.8058 -3593.885594 -20762.81745
 476710.5852 -6967.881439 -25890.88379
 0 0 0
 0 0 0
 476674.2551 3655.598377 27205.92625
 476965.4869 2397.734466 21680.55473
 477271.568 1112.465072 13508.66877
 477441.9171 336.3388736 4579.734537
 477441.918 -336.3370337 -4579.642956
 477271.5706 -1112.463398 -13508.57707
 476965.4911 -2397.732988 -21680.46248
 476674.2604 -3655.597013 -27205.83325
 0 0 0
 476178.421 2268.393792 34940.47849
 476531.4825 1461.691503 29790.61813
 476918.2653 1125.842376 22794.12124
 477252.545 623.9421978 14194.72857
 477439.7232 194.4945102 4810.838144
 477439.7241 -194.4935588 -4810.745809
 477252.5477 -623.9412698 -14194.63654
 476918.2698 -1125.841591 -22794.02863
 476531.4884 -1461.690739 -29790.52458
 476178.428 -2268.393185 -34940.38384
 476152.9523 867.6042961 35348.04899
 476481.6469 509.2608841 30608.0405
 476894.4336 341.6602899 23312.09477
 477243.7043 196.0121554 14501.01859
 477438.717 62.67317903 4913.129167
 477438.718 -62.67282574 -4913.036311
 477243.7072 -196.0118847 -14500.92589
 476894.4381 -341.6599749 -23312.00188
 476481.6529 -509.2606405 -30607.94665
 476152.9594 -867.6040369 -35347.95412
 476152.9523 -867.6042321 35348.04899
 476481.6469 -509.26082 30608.04051
 476894.4336 -341.6602256 23312.09477
 477243.7043 -196.012091 14501.0186
 477438.717 -62.67311463 4913.129163
 477438.718 62.67289013 -4913.036306
 477243.7072 196.0119491 -14500.92589
 476894.4381 341.6600392 -23312.00188
 476481.6529 509.2607047 -30607.94665
 476152.9594 867.6041009 -35347.95412
 476178.421 -2268.393728 34940.4785
 476531.4825 -1461.691439 29790.61813
 476918.2653 -1125.842311 22794.12124
 477252.545 -623.9421336 14194.72857
 477439.7232 -194.494446 4810.838148
 477439.7241 194.4936231 -4810.745811
 477252.5477 623.941334 -14194.63654
 476918.2698 1125.841655 -22794.02863
 476531.4884 1461.690803 -29790.52458
 476178.428 2268.393249 -34940.38384
 0 0 0
 476674.2551 -3655.598313 27205.92625
 476965.4869 -2397.734402 21680.55473
 477271.568 -1112.465009 13508.66878
 477441.9171 -336.3388096 4579.734536
 477441.918 336.3370976 -4579.642952
 477271.5706 1112.463462 -13508.57707
 476965.4911 2397.733052 -21680.46248
 476674.2604 3655.597077 -27205.83325
 0 0 0
 0 0 0
 476710.5801 -6967.883146 25890.9771
 476998.8017 -3593.887545 20762.91001
 477304.8578 -1440.274195 12242.12652
 477445.6822 -504.4640003 4151.793639
 477445.683 504.4613592 -4151.701812
 477304.8601 1440.271687 -12242.03434
 476998.8058 3593.885658 -20762.81745
 476710.5852 6967.881502 -25890.88379
 0 0 0
 0 0 0
 0 0 0
 0 0 0
 477376.1002 -2293.347546 8869.655768
 477451.0632 -870.2640695 3405.315449
 477451.0639 870.2605333 -3405.22291
 477376.102 2293.344058 -8869.562682
 0 0 0
 0 0 0
 0 0 0
 0 0 0
 0 0 0
 0 0 0
 477397.72 2467.259718 7563.123086
 477454.1594 933.6142614 2919.813659
 477454.16 -933.6106478 -2919.716639
 477397.7216 -2467.256124 -7563.025532
 0 0 0
 0 0 0
 0 0 0
 0 0 0
 476879.0059 7443.961362 22424.81713
 477105.4377 3846.001212 18096.43423
 477342.2981 1542.183989 10668.80514
 477449.9289 533.4484605 3626.584501
 477449.9296 -533.4456461 -3626.488076
 477342.3003 -1542.181357 -10668.70861
 477105.4413 -3845.999124 -18096.3376
 476879.0105 -7443.959573 -22424.72018
 0 0 0
 0 0 0
 476860.7889 3915.683786 23671.22123
 477077.2819 2534.256507 19045.10368
 477313.1929 1156.361448 11943.6187
 477446.5856 344.7829252 4063.288488
 477446.5864 -344.7810292 -4063.19258
 477313.1953 -1156.359649 -11943.52263
 477077.2857 -2534.255007 -19045.0074
 476860.7937 -3915.68234 -23671.12433
 0 0 0
 476494.9865 2429.472499 30306.71204
 476748.9363 1562.578696 26074.53592
 477035.915 1170.282647 20180.12792
 477295.4735 634.2945668 12668.85611
 477444.4992 194.8428166 4310.862513
 477444.5 -194.841788 -4310.766252
 477295.4761 -634.2936015 -12668.76007
 477035.9191 -1170.281755 -20180.03129
 476748.9416 -1562.577953 -26074.43881
 476494.9927 -2429.47191 -30306.6141
 476474.8555 927.8172105 30703.78696
 476705.4404 537.5647905 26898.05556
 477013.5312 350.3160707 20732.57334
 477286.8633 196.474492 13003.18519
 477443.5048 61.97499786 4423.48055
 477443.5057 -61.97463278 -4423.384146
 477286.8659 -196.474161 -13003.08876
 477013.5354 -350.3157868 -20732.47662
 476705.4459 -537.5644779 -26897.95809
 476474.8618 -927.8169973 -30703.68881
 476474.8555 -927.8171504 30703.78696
 476705.4404 -537.5647303 26898.05555
 477013.5312 -350.3160104 20732.57335
 477286.8633 -196.4744316 13003.18518
 477443.5048 -61.9749374 4423.480557
 477443.5057 61.97469324 -4423.384151
 477286.8659 196.4742214 -13003.08876
 477013.5354 350.3158472 -20732.47662
 476705.4459 537.5645381 -26897.95808
 476474.8618 927.8170574 -30703.68881
 476494.9865 -2429.472439 30306.71204
 476748.9363 -1562.578636 26074.53592
 477035.915 -1170.282587 20180.12792
 477295.4735 -634.2945065 12668.85612
 477444.4992 -194.8427563 4310.862509
 477444.5 194.8418483 -4310.766245
 477295.4761 634.2936618 -12668.76007
 477035.9191 1170.281816 -20180.03129
 476748.9416 1562.578013 -26074.43881
 476494.9927 2429.47197 -30306.6141
 0 0 0
 476860.7889 -3915.683726 23671.22123
 477077.2819 -2534.256447 19045.10368
 477313.1929 -1156.361388 11943.6187
 477446.5856 -344.7828652 4063.288495
 477446.5864 344.7810892 -4063.192582
 477313.1953 1156.359709 -11943.52262
 477077.2857 2534.255067 -19045.0074
 476860.7937 3915.6824 -23671.12433
 0 0 0
 0 0 0
 476879.0059 -7443.961303 22424.81714
 477105.4377 -3846.001152 18096.43424
 477342.2981 -1542.18393 10668.80514
 477449.9289 -533.4484006 3626.584501
 477449.9296 533.4457059 -3626.488071
 477342.3003 1542.181417 -10668.70861
 477105.4413 3845.999184 -18096.3376
 476879.0105 7443.959633 -22424.72017
 0 0 0
 0 0 0
 0 0 0
 0 0 0
 477397.72 -2467.259658 7563.123089
 477454.1594 -933.6142018 2919.813663
 477454.16 933.6107074 -2919.716636
 477397.7216 2467.256184 -7563.025528
 0 0 0
 0 0 0
 0 0 0
 0 0 0
 0 0 0
 0 0 0
 477414.4324 2664.794647 6342.702178
 477456.6389 1007.831333 2452.254106
 477456.6394 -1007.827392 -2452.151879
 477414.4338 -2664.790711 -6342.599476
 0 0 0
 0 0 0
 0 0 0
 0 0 0
 477021.427 7915.839489 18967.5756
 477198.8831 4175.689139 15351.25046
 477375.0949 1724.07846 9050.835281
 477453.702 592.3824374 3079.41292
 477453.7027 -592.3793446 -3079.311338
 477375.0968 -1724.07548 -9050.73381
 477198.8864 -4175.68675 -15351.14919
 477021.4311 -7915.837356 -18967.47442
 0 0 0
 0 0 0
 477022.8997 4249.657609 20073.98487
 477180.0429 2766.137817 16230.41592
 477352.8876 1279.95435 10220.25786
 477451.1262 382.7919666 3485.230365
 477451.127 -382.7898019 -3485.129454
 477352.8898 -1279.95231 -10220.15688
 477180.0464 -2766.136012 -16230.31498
 477022.904 -4249.655917 -20073.88372
 0 0 0
 476767.1701 2619.374564 25652.9866
 476945.574 1743.735071 22175.44046
 477149.3438 1294.098594 17282.94738
 477338.7654 699.8285812 10912.59015
 477449.4227 214.7043695 3724.778092
 477449.4235 -214.7031617 -3724.677337
 477338.7677 -699.8274292 -10912.4896
 477149.3475 -1294.09755 -17282.84618
 476945.5787 -1743.734144 -22175.3392
 476767.1755 -2619.373914 -25652.88496
 476754.0179 999.6878697 26009.19751
 476912.9064 595.9185928 22925.87842
 477131.5465 388.3829087 17810.32686
 477331.6154 216.3875851 11240.70529
 477448.5799 67.98087632 3836.690335
 477448.5807 -67.98044597 -3836.589955
 477331.6177 -216.3871845 -11240.60459
 477131.5503 -388.3825519 -17810.2257
 476912.9113 -595.9182696 -22925.77685
 476754.0234 -999.6876183 -26009.0957
 476754.0179 -999.6878154 26009.19751
 476912.9064 -595.9185384 22925.87843
 477131.5465 -388.3828541 17810.32686
 477331.6154 -216.3875305 11240.7053
 477448.5799 -67.98082168 3836.690329
 477448.5807 67.98050061 -3836.589947
 477331.6177 216.3872391 -11240.6046
 477131.5503 388.3826065 -17810.22569
 476912.9113 595.918324 -22925.77685
 476754.0234 999.6876725 -26009.0957
 476767.1701 -2619.37451 25652.9866
 476945.574 -1743.735017 22175.44046
 477149.3438 -1294.09854 17282.94738
 477338.7654 -699.8285268 10912.59015
 477449.4227 -214.704315 3724.778101
 477449.4235 214.7032162 -3724.677341
 477338.7677 699.8274837 -10912.48959
 477149.3475 1294.097604 -17282.84619
 476945.5787 1743.734198 -22175.3392
 476767.1755 2619.373968 -25652.88496
 0 0 0
 477022.8997 -4249.657555 20073.98488
 477180.0429 -2766.137762 16230.41592
 477352.8876 -1279.954296 10220.25787
 477451.1262 -382.7919123 3485.230364
 477451.127 382.7898562 -3485.129446
 477352.8898 1279.952364 -10220.15688
 477180.0464 2766.136066 -16230.31498
 477022.904 4249.655972 -20073.88372
 0 0 0
 0 0 0
 477021.427 -7915.839435 18967.5756
 477198.8831 -4175.689086 15351.25046
 477375.0949 -1724.078406 9050.835283
 477453.702 -592.3823834 3079.412928
 477453.7027 592.3793987 -3079.311336
 477375.0968 1724.075534 -9050.733804
 477198.8864 4175.686804 -15351.14918
 477021.4311 7915.83741 -18967.47442
 0 0 0
 0 0 0
 0 0 0
 0 0 0
 477414.4324 -2664.794592 6342.702184
 477456.6389 -1007.831279 2452.25411
 477456.6394 1007.827446 -2452.151873
 477414.4338 2664.790765 -6342.599471
 0 0 0
 0 0 0
 0 0 0
 0 0 0
 0 0 0
 0 0 0
 477426.4863 2853.536238 5261.063903
 477458.4417 1079.949937 2035.048013
 477458.4422 -1079.945363 -2034.939069
 477426.4875 -2853.531641 -5260.954585
 0 0 0
 0 0 0
 0 0 0
 0 0 0
 477129.2132 8345.384925 15809.48369
 477270.7944 4505.257741 12812.6018
 477400.3819 1920.872032 7553.599486
 477456.6234 658.9384853 2570.961309
 477456.624 -658.9348419 -2570.853107
 477400.3837 -1920.868502 -7553.491566
 477270.7973 -4505.254813 -12812.4947
 477129.2168 -8345.382229 -15809.37704
 0 0 0
 0 0 0
 477147.9836 4582.222172 16753.39673
 477261.3041 3020.634256 13579.19938
 477384.9295 1431.622997 8570.34438
 477454.8341 432.7762928 2926.663566
 477454.8348 -432.7736901 -2926.556227
 477384.9315 -1431.620549 -8570.237362
 477261.3072 -3020.631997 -13579.09253
 477147.9873 -4582.220028 -16753.29018
 0 0 0
 476976.4633 2802.795264 21388.52675
 477100.2448 1939.988102 18532.78573
 477241.5942 1445.882656 14499.7065
 477374.9501 790.4738352 9187.134625
 477453.5986 244.4165808 3142.085049
 477453.5993 -244.4151417 -3141.978677
 477374.9522 -790.4723319 -9187.028133
 477241.5974 -1445.881399 -14499.59978
 477100.2489 -1939.986899 -18532.67928
 476976.4681 -2802.794474 -21388.42055
 476969.7268 1070.071288 21693.45386
 477078.1028 662.0158217 19181.1586
 477229.1081 438.3738053 14968.55017
 477369.721 246.1243797 9484.736329
 477452.9692 77.71046047 3244.597965
 477452.97 -77.70990086 -3244.492405
 477369.7231 -246.1239945 -9484.63032
 477229.1115 -438.3732661 -14968.44359
 477078.1071 -662.0154666 -19181.05203
 476969.7317 -1070.070977 -21693.34746
 476969.7268 -1070.071241 21693.45386
 477078.1028 -662.0157749 19181.1586
 477229.1081 -438.3737583 14968.55018
 477369.721 -246.1243327 9484.736324
 477452.9692 -77.71041341 3244.597973
 477452.97 77.70994793 -3244.492411
 477369.7231 246.1240415 -9484.630313
 477229.1115 438.3733131 -14968.4436
 477078.1071 662.0155134 -19181.05202
 476969.7317 1070.071024 -21693.34746
 476976.4633 -2802.795217 21388.52675
 477100.2448 -1939.988055 18532.78574
 477241.5942 -1445.882609 14499.7065
 477374.9501 -790.4737883 9187.134633
 477453.5986 -244.4165338 3142.085045
 477453.5993 244.4151887 -3141.978668
 477374.9522 790.4723788 -9187.028136
 477241.5974 1445.881446 -14499.59978
 477100.2489 1939.986946 -18532.67928
 476976.4681 2802.794521 -21388.42054
 0 0 0
 477147.9836 -4582.222125 16753.39674
 477261.3041 -3020.634209 13579.19938
 477384.9295 -1431.62295 8570.34438
 477454.8341 -432.776246 2926.663575
 477454.8348 432.7737369 -2926.556228
 477384.9315 1431.620596 -8570.237353
 477261.3072 3020.632044 -13579.09253
 477147.9873 4582.220075 -16753.29018
 0 0 0
 0 0 0
 477129.2132 -8345.384878 15809.48369
 477270.7944 -4505.257695 12812.60181
 477400.3819 -1920.871985 7553.599494
 477456.6234 -658.9384387 2570.961311
 477456.624 658.9348884 -2570.853098
 477400.3837 1920.868548 -7553.491563
 477270.7973 4505.25486 -12812.4947
 477129.2168 8345.382275 -15809.37703
 0 0 0
 0 0 0
 0 0 0
 0 0 0
 477426.4863 -2853.536192 5261.063909
 477458.4417 -1079.949891 2035.048021
 477458.4422 1079.945409 -2034.939063
 477426.4875 2853.531688 -5260.954578
 0 0 0
 0 0 0
 0 0 0
 0 0 0
 0 0 0
 0 0 0
 477434.8097 3018.459911 4331.589643
 477459.6895 1143.524282 1675.87315
 477459.6899 -1143.519066 -1675.756237
 477434.8108 -3018.454644 -4331.472482
 0 0 0
 0 0 0
 0 0 0
 0 0 0
 477205.9521 8714.211872 13054.23459
 477322.5043 4799.191009 10586.11847
 477418.5974 2101.667018 6239.965573
 477458.7304 721.2161749 2124.128549
 477458.7309 -721.2119474 -2124.012556
 477418.5989 -2101.662953 -6239.850249
 477322.5069 -4799.187507 -10586.00438
 477205.9553 -8714.208599 -13054.1214
 0 0 0
 0 0 0
 477238.3959 4878.427538 13841.4491
 477320.74 3257.105783 11232.7096
 477408.6306 1578.957604 7097.720183
 477457.5948 482.6576904 2425.595907
 477457.5954 -482.6546976 -2425.481423
 477408.6323 -1578.954618 -7097.605873
 477320.7426 -3257.103165 -11232.59625
 477238.3992 -4878.424887 -13841.33612
 0 0 0
 477127.9971 2963.590556 17662.47001
 477213.3977 2120.308546 15321.50774
 477310.2383 1593.268348 12011.20993
 477402.2942 883.0528887 7625.022506
 477456.7822 275.6940677 2610.822775
 477456.7828 -275.6922807 -2610.709601
 477402.296 -883.0512876 -7624.909612
 477310.2412 -1593.266644 -12011.09676
 477213.4014 -2120.307195 -15321.39546
 477128.0012 -2963.589576 -17662.35833
 477126.3699 1132.256611 17916.93202
 477199.7677 723.8923536 15865.96979
 477302.4147 488.2307284 12411.19678
 477398.8556 277.4119306 7882.06784
 477456.358 88.27274109 2699.938118
 477456.3587 -88.27218721 -2699.826305
 477398.8575 -277.4112266 -7881.955583
 477302.4177 -488.2303428 -12411.08432
 477199.7714 -723.8917579 -15865.85744
 477126.3741 -1132.256299 -17916.82026
 477126.3699 -1132.256573 17916.93202
 477199.7677 -723.8923158 15865.96979
 477302.4147 -488.2306906 12411.19677
 477398.8556 -277.4118927 7882.067848
 477456.358 -88.27270312 2699.938112
 477456.3587 88.27222517 -2699.826296
 477398.8575 277.4112646 -7881.955588
 477302.4177 488.2303807 -12411.08431
 477199.7714 723.8917956 -15865.85744
 477126.3741 1132.256337 -17916.82026
 477127.9971 -2963.590518 17662.47002
 477213.3977 -2120.308508 15321.50774
 477310.2383 -1593.26831 12011.20994
 477402.2942 -883.0528508 7625.022504
 477456.7822 -275.6940299 2610.822785
 477456.7828 275.6923186 -2610.709604
 477402.296 883.0513255 -7624.909603
 477310.2412 1593.266682 -12011.09676
 477213.4014 2120.307232 -15321.39545
 477128.0012 2963.589613 -17662.35833
 0 0 0
 477238.3959 -4878.4275 13841.4491
 477320.74 -3257.105745 11232.7096
 477408.6306 -1578.957567 7097.720193
 477457.5948 -482.6576526 2425.595907
 477457.5954 482.6547353 -2425.481412
 477408.6323 1578.954656 -7097.605873
 477320.7426 3257.103203 -11232.59624
 477238.3992 4878.424925 -13841.33611
 0 0 0
 0 0 0
 477205.9521 -8714.211834 13054.2346
 477322.5043 -4799.190972 10586.11848
 477418.5974 -2101.66698 6239.965577
 477458.7304 -721.2161374 2124.128559
 477458.7309 721.2119849 -2124.012552
 477418.5989 2101.662991 -6239.85024
 477322.5069 4799.187544 -10586.00437
 477205.9553 8714.208637 -13054.1214
 0 0 0
 0 0 0
 0 0 0
 0 0 0
 477434.8097 -3018.459873 4331.589651
 477459.6895 -1143.524245 1675.873157
 477459.6899 1143.519104 -1675.756228
 477434.8108 3018.454682 -4331.472475
 0 0 0
 0 0 0
 0 0 0
 0 0 0
 0 0 0
 0 0 0
 477440.379 3155.533244 3549.422556
 477460.5253 1196.607111 1373.406804
 477460.5256 -1196.601485 -1373.282358
 477440.38 -3155.527554 -3549.297992
 0 0 0
 0 0 0
 0 0 0
 0 0 0
 477258.5148 9018.897464 10716.38275
 477358.1976 5046.224741 8692.417427
 477431.1909 2255.562531 5122.668514
 477460.1871 774.6811792 1743.817033
 477460.1876 -774.6765898 -1743.693963
 477431.1922 -2255.558011 -5122.545989
 477358.1998 -5046.220885 -8692.296817
 477258.5175 -9018.89375 -10716.26299
 0 0 0
 0 0 0
 477301.192 5127.183073 11364.65438
 477362.2787 3459.733401 9228.022269
 477425.2995 1707.850403 5834.20669
 477459.5434 526.8502316 1994.529673
 477459.5439 -526.8468715 -1994.408248
 477425.301 -1707.847248 -5834.085981
 477362.2811 -3459.73031 -9227.902289
 477301.1949 -5127.180164 -11364.53532
 0 0 0
 477233.7617 3097.319827 14498.77861
 477292.7403 2273.747655 12583.37974
 477358.7804 1722.162293 9874.22086
 477421.7927 966.0539228 6274.543906
 477459.0637 304.1511123 2149.719773
 477459.0642 -304.1492043 -2149.600118
 477421.7943 -966.0518833 -6274.424549
 477358.7829 -1722.160648 -9874.101904
 477292.7434 -2273.745939 -12583.26143
 477233.7653 -3097.318757 -14498.66138
 477235.9337 1184.178786 14708.24828
 477285.4421 776.9891635 13033.58682
 477354.5755 532.3769229 10207.70064
 477419.787 305.8692719 6490.354817
 477458.8064 98.03070814 2224.82614
 477458.807 -98.02995474 -2224.707899
 477419.7886 -305.8688013 -6490.236498
 477354.578 -532.3761386 -10207.58229
 477285.4453 -776.9887478 -13033.46891
 477235.9374 -1184.178346 -14708.13099
 477235.9337 -1184.178759 14708.24828
 477285.4421 -776.9891361 13033.58682
 477354.5755 -532.3768954 10207.70064
 477419.787 -305.8692443 6490.35481
 477458.8064 -98.03068053 2224.826151
 477458.807 98.02998235 -2224.707907
 477419.7886 305.8688288 -6490.236488
 477354.578 532.3761662 -10207.5823
 477285.4453 776.9887753 -13033.46891
 477235.9374 1184.178374 -14708.13099
 477233.7617 -3097.319799 14498.77861
 477292.7403 -2273.747627 12583.37974
 477358.7804 -1722.162265 9874.220858
 477421.7927 -966.0538953 6274.543917
 477459.0637 -304.1510848 2149.719769
 477459.0642 304.1492318 -2149.600106
 477421.7943 966.0519108 -6274.424553
 477358.7829 1722.160676 -9874.101896
 477292.7434 2273.745966 -12583.26143
 477233.7653 3097.318784 -14498.66137
 0 0 0
 477301.192 -5127.183046 11364.65438
 477362.2787 -3459.733373 9228.022278
 477425.2995 -1707.850376 5834.206691
 477459.5434 -526.8502042 1994.529686
 477459.5439 526.8468989 -1994.408248
 477425.301 1707.847275 -5834.08597
 477362.2811 3459.730337 -9227.902287
 477301.1949 5127.180192 -11364.53531
 0 0 0
 0 0 0
 477258.5148 -9018.897437 10716.38276
 477358.1976 -5046.224714 8692.417432
 477431.1909 -2255.562503 5122.668525
 477460.1871 -774.6811519 1743.817037
 477460.1876 774.6766171 -1743.693951
 477431.1922 2255.558038 -5122.545984
 477358.1998 5046.220913 -8692.296809
 477258.5175 9018.893777 -10716.26298
 0 0 0
 0 0 0
 0 0 0
 0 0 0
 477440.379 -3155.533216 3549.422565
 477460.5253 -1196.607084 1373.406814
 477460.5256 1196.601512 -1373.28235
 477440.38 3155.527581 -3549.297982
 0 0 0
 0 0 0
 0 0 0
 0 0 0
 0 0 0
 0 0 0
 477444.0163 3266.216205 2900.763422
 477461.0715 1239.576094 1122.477738
 477461.0718 -1239.57028 -1122.347284
 477444.0171 -3266.210291 -2900.632765
 0 0 0
 0 0 0
 0 0 0
 0 0 0
 477293.5799 9264.474866 8768.091367
 477382.1867 5247.021071 7112.513397
 477439.6698 2381.384936 4190.709395
 477461.1673 818.5734705 1426.50834
 477461.1677 -818.568627 -1426.379371
 477439.6709 -2381.380246 -4190.581184
 477382.1887 -5247.016915 -7112.386866
 477293.5822 -9264.470913 -8767.965698
 0 0 0
 0 0 0
 477343.7029 5329.264372 9298.36297
 477390.5019 3626.006417 7551.955759
 477436.6682 1814.710992 4775.560589
 477460.8751 563.7209357 1632.862646
 477460.8756 -563.7174275 -1632.735459
 477436.6695 -1814.707475 -4775.433961
 477390.5039 -3626.003261 -7551.830377
 477343.7054 -5329.261154 -9298.238004
 0 0 0
 477305.8757 3205.27355 11861.64137
 477346.9385 2399.134037 10296.39732
 477392.0737 1828.990741 8082.951262
 477435.2245 1035.734765 5138.573466
 477460.6396 328.2238992 1761.034701
 477460.64 -328.2217693 -1760.908993
 477435.2259 -1035.732816 -5138.448335
 477392.0758 -1828.98869 -8082.826479
 477346.9411 -2399.132356 -10296.27355
 477305.8788 -3205.272324 -11861.51838
 477310.7771 1226.171808 12032.86398
 477344.155 820.5472127 10665.63269
 477390.5097 569.1888156 8357.546111
 477434.2809 329.9367287 5316.944813
 477460.507 106.3513617 1823.243566
 477460.5075 -106.3506854 -1823.119038
 477434.2822 -329.9359264 -5316.820534
 477390.5119 -569.1883247 -8357.422179
 477344.1577 -820.546515 -10665.50914
 477310.7803 -1226.171416 -12032.74102
 477310.7771 -1226.171791 12032.86398
 477344.155 -820.5471965 10665.6327
 477390.5097 -569.1887993 8357.546104
 477434.2809 -329.9367124 5316.944825
 477460.507 -106.3513453 1823.243555
 477460.5075 106.3507018 -1823.119024
 477434.2822 329.9359427 -5316.820544
 477390.5119 569.188341 -8357.422169
 477344.1577 820.5465313 -10665.50915
 477310.7803 1226.171432 -12032.74101
 477305.8757 -3205.273534 11861.64138
 477346.9385 -2399.134021 10296.39732
 477392.0737 -1828.990725 8082.951273
 477435.2245 -1035.734749 5138.57346
 477460.6396 -328.2238829 1761.034716
 477460.64 328.2217856 -1760.909
 477435.2259 1035.732832 -5138.44832
 477392.0758 1828.988707 -8082.826483
 477346.9411 2399.132372 -10296.27355
 477305.8788 3205.27234 -11861.51838
 0 0 0
 477343.7029 -5329.264356 9298.362978
 477390.5019 -3626.006401 7551.95576
 477436.6682 -1814.710976 4775.560603
 477460.8751 -563.7209195 1632.862644
 477460.8756 563.7174437 -1632.735444
 477436.6695 1814.707491 -4775.433962
 477390.5039 3626.003277 -7551.830366
 477343.7054 5329.26117 -9298.238
 0 0 0
 0 0 0
 477293.5799 -9264.47485 8768.091373
 477382.1867 -5247.021055 7112.513407
 477439.6698 -2381.38492 4190.709399
 477461.1673 -818.5734543 1426.508354
 477461.1677 818.5686431 -1426.379368
 477439.6709 2381.380262 -4190.581171
 477382.1887 5247.016931 -7112.38686
 477293.5822 9264.470929 -8767.96569
 0 0 0
 0 0 0
 0 0 0
 0 0 0
 477444.0163 -3266.216189 2900.763433
 477461.0715 -1239.576078 1122.477746
 477461.0718 1239.570296 -1122.347273
 477444.0171 3266.210307 -2900.632756
 0 0 0
 0 0 0
 0 0 0
 0 0 0
 0 0 0
 0 0 0
 477446.3451 3354.135114 2368.249452
 477461.4215 1273.753862 916.4344002
 477461.4217 -1273.747904 -916.2988407
 477446.3458 -3354.129079 -2368.113693
 0 0 0
 0 0 0
 0 0 0
 0 0 0
 477316.5306 9459.480705 7163.739672
 477398.0183 5407.166201 5810.852379
 477445.2778 2482.011982 3423.105147
 477461.8151 853.7480832 1165.144505
 477461.8154 -853.7430895 -1165.010438
 477445.2788 -2482.007064 -3422.971551
 477398.0199 -5407.161911 -5810.720419
 477316.5326 -9459.476543 -7163.608127
 0 0 0
 0 0 0
 477371.9996 5490.357742 7596.136044
 477409.3358 3759.245589 6169.724742
 477444.275 1900.791763 3901.614063
 477461.7673 593.5184945 1334.093067
 477461.7677 -593.5147729 -1333.96032
 477444.2761 -1900.788194 -3901.482099
 477409.3375 -3759.242124 -6169.593436
 477372.0017 -5490.354423 -7596.005295
 0 0 0
 477354.3176 3290.977637 9690.008018
 477383.3615 2499.360683 8411.341244
 477414.4874 1915.021797 6603.87773
 477444.2873 1092.230828 4198.915575
 477461.7043 347.8206873 1439.166162
 477461.7047 -347.8185288 -1439.034452
 477444.2884 -1092.22859 -4198.78427
 477414.4892 -1915.019842 -6603.747155
 477383.3638 -2499.358734 -8411.211136
 477354.3202 -3290.976352 -9689.878683
 477361.1477 1259.5371 9829.523933
 477383.7278 855.4268186 8712.977115
 477414.7915 598.9246175 6828.574481
 477444.1002 349.5250552 4345.149095
 477461.661 113.1528511 1490.223761
 477461.6614 -113.1520571 -1490.092706
 477444.1014 -349.524454 -4345.018469
 477414.7934 -598.9238284 -6828.444195
 477383.7302 -855.426279 -8712.847317
 477361.1504 -1259.536605 -9829.394488
 477361.1477 -1259.537095 9829.523936
 477383.7278 -855.426814 8712.977109
 477414.7915 -598.9246129 6828.574495
 477444.1002 -349.5250507 4345.14908
 477461.661 -113.1528465 1490.223782
 477461.6614 113.1520616 -1490.092723
 477444.1014 349.5244586 -4345.018451
 477414.7934 598.9238329 -6828.444206
 477383.7302 855.4262835 -8712.847308
 477361.1504 1259.53661 -9829.39449
 477354.3176 -3290.977632 9690.008019
 477383.3615 -2499.360678 8411.341253
 477414.4874 -1915.021793 6603.877723
 477444.2873 -1092.230824 4198.915594
 477461.7043 -347.8206828 1439.16615
 477461.7047 347.8185334 -1439.034431
 477444.2884 1092.228594 -4198.784281
 477414.4892 1915.019846 -6603.74714
 477383.3638 2499.358738 -8411.211138
 477354.3202 3290.976356 -9689.878679
 0 0 0
 477371.9996 -5490.357737 7596.136047
 477409.3358 -3759.245585 6169.724756
 477444.275 -1900.791758 3901.614059
 477461.7673 -593.51849 1334.093087
 477461.7677 593.5147774 -1333.960326
 477444.2761 1900.788198 -3901.482081
 477409.3375 3759.242128 -6169.593437
 477372.0017 5490.354428 -7596.005286
 0 0 0
 0 0 0
 477316.5306 -9459.4807 7163.739681
 477398.0183 -5407.166196 5810.852383
 477445.2778 -2482.011978 3423.105162
 477461.8151 -853.7480788 1165.144506
 477461.8154 853.743094 -1165.010421
 477445.2788 2482.007068 -3422.971549
 477398.0199 5407.161915 -5810.720408
 477316.5326 9459.476547 -7163.608121
 0 0 0
 0 0 0
 0 0 0
 0 0 0
 477446.3451 -3354.13511 2368.24946
 477461.4215 -1273.753858 916.434413
 477461.4217 1273.747908 -916.2988328
 477446.3458 3354.129083 -2368.113681
 0 0 0
 0 0 0
 0 0 0
 0 0 0
 0 0 0
 0 0 0
 477447.81 3423.367545 1934.066636
 477461.6418 1300.687872 748.4174981
 477461.642 -1300.68193 -748.2770592
 477447.8106 -3423.361514 -1933.925847
 0 0 0
 0 0 0
 0 0 0
 0 0 0
 477331.3344 9613.053538 5853.00401
 477408.3315 5533.585118 4747.183705
 477448.9417 2561.552286 2796.036621
 477462.2378 881.5798648 951.6393417
 477462.2381 -881.5748325 -951.5000659
 477448.9425 -2561.547407 -2795.897855
 477408.3329 -5533.580769 -4747.045807
 477331.3362 -9613.049389 -5852.866339
 0 0 0
 0 0 0
 477390.6258 5617.473502 6205.296567
 477421.7594 3864.670666 5039.76754
 477449.3041 1969.089213 3186.845492
 477462.3577 617.2002776 1089.666287
 477462.358 -617.1965663 -1089.527933