# OOMMF OVF 2.0
#
# Segment count: 1
#
# Begin: Segment
# Begin: Header
#
# Title: Oxs_MinDriver::Magnetization
# Desc: Oxs vector field output
# Desc:  MIF source file: F:/Bogdan/UNIC/2022/Master_degree/Simulation_samples/Cylinder0_5000.mif
# Desc:  Iteration: 2070, State id: 15490
# Desc:  Stage: 5, Stage iteration: 90
# Desc:  Stage simulation time: 0 s
# Desc:  Total simulation time: -2 s
# meshunit: m
# meshtype: rectangular
# xbase: -8.9999999999999995e-09
# ybase: -8.9999999999999995e-09
# zbase: -8.6999999999999998e-08
# xnodes: 10
# ynodes: 10
# znodes: 88
# xstepsize: 2.0000000000000001e-09
# ystepsize: 2.0000000000000001e-09
# zstepsize: 2.0000000000000001e-09
# xmin: -1e-08
# ymin: -1e-08
# zmin: -8.7999999999999994e-08
# xmax: 1e-08
# ymax: 1e-08
# zmax: 8.800000000000002e-08
# valuedim: 3
# valuelabels: Magnetization_x Magnetization_y Magnetization_z
# valueunits: A/m A/m A/m
#
# End: Header
#
# Begin: Data Text
 0 0 0
 0 0 0
 0 0 0
 477373.1932 2049.96571 9083.134462
 477451.1774 779.9383701 3411.181399
 477451.1775 -779.9375602 -3411.174395
 477373.1934 -2049.964904 -9083.127429
 0 0 0
 0 0 0
 0 0 0
 0 0 0
 476737.635 6195.998364 25587.26739
 477024.3925 3261.583936 20222.81755
 477312.4807 1342.214345 11952.63805
 477446.765 469.1671119 4029.616923
 477446.765 -469.1664144 -4029.609965
 477312.4808 -1342.213669 -11952.6311
 477024.3928 -3261.583324 -20222.81061
 476737.6354 -6195.997786 -25587.26042
 0 0 0
 0 0 0
 476705.3569 3303.140643 26701.3715
 477003.3734 2193.831161 20852.82246
 477289.328 1037.382759 12872.16196
 477444.1414 315.9702001 4343.195409
 477444.1414 -315.9696718 -4343.188504
 477289.3281 -1037.38224 -12872.15504
 477003.3737 -2193.830677 -20852.81554
 476705.3573 -3303.140175 -26701.36454
 0 0 0
 476217.6793 2049.559858 34415.00447
 476590.7065 1363.925108 28832.4375
 476970.7808 1049.098107 21671.29326
 477276.8741 582.6810583 13353.5458
 477442.7234 182.1135353 4503.774223
 477442.7235 -182.1132045 -4503.767346
 477276.8743 -582.680741 -13353.53893
 476970.7811 -1049.097799 -21671.28636
 476590.7069 -1363.924836 -28832.4306
 476217.6798 -2049.559661 -34414.99758
 476197.6559 780.4592557 34742.69202
 476557.1648 474.3030694 29409.43748
 476955.6398 320.6242849 22024.67125
 477271.3427 183.3851795 13561.08937
 477442.0981 58.57208253 4572.835316
 477442.0982 -58.57197285 -4572.828462
 477271.3429 -183.3850667 -13561.08251
 476955.6401 -320.6241868 -22024.66439
 476557.1652 -474.3029737 -29409.43059
 476197.6565 -780.4591819 -34742.68512
 476197.6559 -780.4592561 34742.69202
 476557.1648 -474.3030698 29409.43748
 476955.6398 -320.6242853 22024.67125
 477271.3427 -183.3851799 13561.08937
 477442.0981 -58.57208292 4572.835317
 477442.0982 58.57197245 -4572.828463
 477271.3429 183.3850663 -13561.08251
 476955.6401 320.6241864 -22024.66439
 476557.1652 474.3029733 -29409.43059
 476197.6565 780.4591815 -34742.68512
 476217.6793 -2049.559859 34415.00447
 476590.7065 -1363.925108 28832.4375
 476970.7808 -1049.098108 21671.29325
 477276.8741 -582.6810587 13353.5458
 477442.7234 -182.1135357 4503.774222
 477442.7235 182.1132041 -4503.767345
 477276.8743 582.6807406 -13353.53893
 476970.7811 1049.097799 -21671.28636
 476590.7069 1363.924835 -28832.4306
 476217.6798 2049.55966 -34414.99758
 0 0 0
 476705.3569 -3303.140644 26701.3715
 477003.3734 -2193.831161 20852.82246
 477289.328 -1037.382759 12872.16196
 477444.1414 -315.9702005 4343.195411
 477444.1414 315.9696714 -4343.188505
 477289.3281 1037.38224 -12872.15504
 477003.3737 2193.830676 -20852.81555
 476705.3573 3303.140175 -26701.36454
 0 0 0
 0 0 0
 476737.635 -6195.998364 25587.26739
 477024.3925 -3261.583937 20222.81755
 477312.4807 -1342.214346 11952.63805
 477446.765 -469.1671123 4029.616923
 477446.765 469.166414 -4029.609964
 477312.4808 1342.213669 -11952.6311
 477024.3928 3261.583324 -20222.81061
 476737.6354 6195.997785 -25587.26042
 0 0 0
 0 0 0
 0 0 0
 0 0 0
 477373.1932 -2049.96571 9083.134461
 477451.1774 -779.9383705 3411.181399
 477451.1775 779.9375598 -3411.174395
 477373.1934 2049.964904 -9083.127429
 0 0 0
 0 0 0
 0 0 0
 0 0 0
 0 0 0
 0 0 0
 477393.5906 2158.717152 7910.175927
 477453.6625 817.8692092 3033.570214
 477453.6626 -817.8684435 -3033.562994
 477393.5907 -2158.716391 -7910.168683
 0 0 0
 0 0 0
 0 0 0
 0 0 0
 476867.2756 6618.272282 22927.5222
 477099.0424 3326.384272 18366.0077
 477339.1902 1284.550876 10840.60573
 477449.6328 451.4273937 3676.369823
 477449.6328 -451.4267296 -3676.362656
 477339.1904 -1284.550227 -10840.59853
 477099.0426 -3326.383699 -18366.00056
 476867.2759 -6618.271736 -22927.51501
 0 0 0
 0 0 0
 476844.5955 3385.07578 24075.80244
 477074.9358 2183.114747 19147.08635
 477314.3159 981.1921656 11914.37593
 477446.8508 292.1434912 4036.165037
 477446.8508 -292.142978 -4036.157904
 477314.3161 -981.1916777 -11914.36882
 477074.9361 -2183.114275 -19147.07919
 476844.5959 -3385.075341 -24075.79527
 0 0 0
 476456.9649 2138.114353 30920.22646
 476736.0134 1305.817662 26323.74736
 477040.1428 994.1780918 20089.42711
 477300.4624 540.1828501 12483.91487
 477445.2675 166.0206579 4226.138259
 477445.2676 -166.0203432 -4226.131178
 477300.4625 -540.18253 -12483.90776
 477040.1431 -994.1778111 -20089.42002
 476736.0138 -1305.817394 -26323.74022
 476456.9653 -2138.114173 -30920.21934
 476437.7624 816.6095035 31277.19602
 476698.537 456.4577429 27021.616
 477022.7489 297.3498694 20520.23129
 477294.1328 167.4933737 12733.97235
 477444.5542 52.9244766 4308.847253
 477444.5543 -52.92436393 -4308.840181
 477294.133 -167.49328 -12733.96528
 477022.7492 -297.349758 -20520.22419
 476698.5374 -456.4576637 -27021.6089
 476437.7629 -816.6094306 -31277.18889
 476437.7624 -816.6095039 31277.19602
 476698.537 -456.4577433 27021.616
 477022.7489 -297.3498698 20520.23129
 477294.1328 -167.4933741 12733.97235
 477444.5542 -52.924477 4308.847249
 477444.5543 52.92436353 -4308.840177
 477294.133 167.4932796 -12733.96528
 477022.7492 297.3497576 -20520.22419
 476698.5374 456.4576633 -27021.6089
 476437.7629 816.6094302 -31277.18889
 476456.9649 -2138.114354 30920.22646
 476736.0134 -1305.817662 26323.74736
 477040.1428 -994.1780922 20089.42711
 477300.4624 -540.1828505 12483.91487
 477445.2675 -166.0206583 4226.138262
 477445.2676 166.0203428 -4226.131182
 477300.4625 540.1825296 -12483.90776
 477040.1431 994.1778107 -20089.42003
 476736.0138 1305.817394 -26323.74022
 476456.9653 2138.114173 -30920.21934
 0 0 0
 476844.5955 -3385.075781 24075.80244
 477074.9358 -2183.114748 19147.08635
 477314.3159 -981.192166 11914.37593
 477446.8508 -292.1434916 4036.165034
 477446.8508 292.1429776 -4036.157901
 477314.3161 981.1916773 -11914.36882
 477074.9361 2183.114275 -19147.07919
 476844.5959 3385.07534 -24075.79527
 0 0 0
 0 0 0
 476867.2756 -6618.272282 22927.5222
 477099.0424 -3326.384273 18366.0077
 477339.1902 -1284.550877 10840.60572
 477449.6328 -451.4273941 3676.369825
 477449.6328 451.4267292 -3676.362657
 477339.1904 1284.550227 -10840.59853
 477099.0426 3326.383698 -18366.00056
 476867.2759 6618.271736 -22927.51501
 0 0 0
 0 0 0
 0 0 0
 0 0 0
 477393.5906 -2158.717152 7910.175928
 477453.6625 -817.8692096 3033.570214
 477453.6626 817.8684431 -3033.562993
 477393.5907 2158.716391 -7910.168684
 0 0 0
 0 0 0
 0 0 0
 0 0 0
 0 0 0
 0 0 0
 477411.8011 2336.587034 6662.119025
 477456.264 882.7527237 2570.609033
 477456.264 -882.7520109 -2570.601471
 477411.8012 -2336.586323 -6662.111429
 0 0 0
 0 0 0
 0 0 0
 0 0 0
 477007.2843 7099.208543 19634.7471
 477187.8031 3584.464966 15837.40878
 477370.4609 1391.113954 9347.682999
 477453.178 482.134964 3178.317253
 477453.178 -482.1343373 -3178.309721
 477370.461 -1391.113356 -9347.675487
 477187.8033 -3584.464425 -15837.40126
 477007.2846 -7099.208039 -19634.73957
 0 0 0
 0 0 0
 477000.2977 3650.724599 20718.57965
 477167.8659 2325.0575 16652.12152
 477348.8192 1029.168892 10436.32559
 477450.7134 302.0968448 3549.123772
 477450.7135 -302.0963682 -3549.116304
 477348.8194 -1029.168415 -10436.31808
 477167.8662 -2325.057075 -16652.11406
 477000.298 -3650.724181 -20718.57211
 0 0 0
 476721.5223 2304.399746 26516.99843
 476917.2119 1411.662575 22800.25313
 477137.5964 1042.746657 17620.95646
 477335.8407 553.3847168 11048.08716
 477449.1923 167.3965945 3756.594285
 477449.1924 -167.3962867 -3756.58683
 477335.8409 -553.3844382 -11048.07973
 477137.5966 -1042.746368 -17620.94896
 476917.2122 -1411.662342 -22800.24566
 476721.5227 -2304.399577 -26516.99096
 476706.8838 878.6957337 26863.47256
 476884.7033 486.6098502 23507.75003
 477121.1473 307.5349236 18088.3245
 477329.5854 168.9825877 11327.38344
 477448.4745 52.59083245 3850.027687
 477448.4746 -52.59073641 -3850.020265
 477329.5856 -168.9824722 -11327.37599
 477121.1476 -307.5348482 -18088.31706
 476884.7036 -486.6097559 -23507.74255
 476706.8842 -878.6956732 -26863.46508
 476706.8838 -878.6957341 26863.47257
 476884.7033 -486.6098506 23507.75003
 477121.1473 -307.534924 18088.3245
 477329.5854 -168.9825881 11327.38343
 477448.4745 -52.59083284 3850.027693
 477448.4746 52.59073602 -3850.020272
 477329.5856 168.9824718 -11327.37599
 477121.1476 307.5348478 -18088.31706
 476884.7036 486.6097555 -23507.74255
 476706.8842 878.6956728 -26863.46508
 476721.5223 -2304.399747 26516.99843
 476917.2119 -1411.662576 22800.25313
 477137.5964 -1042.746657 17620.95645
 477335.8407 -553.3847172 11048.08717
 477449.1923 -167.3965949 3756.594279
 477449.1924 167.3962863 -3756.586825
 477335.8409 553.3844378 -11048.07974
 477137.5966 1042.746368 -17620.94896
 476917.2122 1411.662342 -22800.24566
 476721.5227 2304.399576 -26516.99096
 0 0 0
 477000.2977 -3650.724599 20718.57965
 477167.8659 -2325.0575 16652.12153
 477348.8192 -1029.168892 10436.32559
 477450.7134 -302.0968452 3549.123776
 477450.7135 302.0963678 -3549.116308
 477348.8194 1029.168415 -10436.31808
 477167.8662 2325.057075 -16652.11406
 477000.298 3650.72418 -20718.57211
 0 0 0
 0 0 0
 477007.2843 -7099.208543 19634.7471
 477187.8031 -3584.464967 15837.40878
 477370.4609 -1391.113954 9347.683001
 477453.178 -482.1349644 3178.31725
 477453.178 482.1343369 -3178.309718
 477370.461 1391.113356 -9347.675489
 477187.8033 3584.464425 -15837.40126
 477007.2846 7099.208038 -19634.73957
 0 0 0
 0 0 0
 0 0 0
 0 0 0
 477411.8011 -2336.587034 6662.119025
 477456.264 -882.7527241 2570.609033
 477456.264 882.7520105 -2570.601471
 477411.8012 2336.586323 -6662.111429
 0 0 0
 0 0 0
 0 0 0
 0 0 0
 0 0 0
 0 0 0
 477425.3908 2534.574704 5517.558204
 477458.2788 957.1500685 2132.415968
 477458.2788 -957.1494011 -2132.407968
 477425.3909 -2534.574043 -5517.550182
 0 0 0
 0 0 0
 0 0 0
 0 0 0
 477121.9157 7569.098576 16409.07021
 477263.2934 3913.73532 13277.90552
 477397.0706 1573.463985 7837.887825
 477456.2404 541.3309155 2667.734531
 477456.2404 -541.3303347 -2667.726575
 477397.0707 -1573.463415 -7837.879843
 477263.2936 -3913.734824 -13277.89759
 477121.916 -7569.098102 -16409.06224
 0 0 0
 0 0 0
 477131.5744 3984.16716 17362.55898
 477250.9625 2557.16607 14030.35851
 477380.8935 1153.403769 8833.091025
 477454.3796 340.421402 3011.775596
 477454.3797 -340.4209458 -3011.767661
 477380.8936 -1153.403345 -8833.083123
 477250.9628 -2557.165652 -14030.35055
 477131.5747 -3984.166781 -17362.55102
 0 0 0
 476942.2563 2495.307405 22174.96018
 477076.514 1593.468082 19165.90582
 477229.1972 1167.254981 14926.55907
 477370.699 619.5740874 9418.236078
 477453.1499 187.5322765 3213.375827
 477453.1499 -187.5319996 -3213.367945
 477370.6991 -619.5737962 -9418.228155
 477229.1974 -1167.254742 -14926.55118
 477076.5143 -1593.467844 -19165.89788
 476942.2567 -2495.307253 -22174.95228
 476933.4131 950.9262556 22483.0269
 477052.6571 545.309456 19807.48001
 477216.3126 345.9412874 15373.43759
 477365.5421 189.1727686 9694.056504
 477452.5436 58.7062331 3307.025124
 477452.5437 -58.70612906 -3307.017246
 477365.5423 -189.1726938 -9694.048631
 477216.3129 -345.9411798 -15373.42968
 477052.6575 -545.3093939 -19807.47211
 476933.4135 -950.9261911 -22483.01898
 476933.4131 -950.926256 22483.0269
 477052.6571 -545.3094563 19807.48002
 477216.3126 -345.9412877 15373.43758
 477365.5421 -189.172769 9694.056512
 477452.5436 -58.70623349 3307.025116
 477452.5437 58.70612868 -3307.017237
 477365.5423 189.1726934 -9694.048639
 477216.3129 345.9411794 -15373.42967
 477052.6575 545.3093935 -19807.47211
 476933.4135 950.9261907 -22483.01898
 476942.2563 -2495.307405 22174.96018
 477076.514 -1593.468082 19165.90582
 477229.1972 -1167.254981 14926.55907
 477370.699 -619.5740877 9418.236072
 477453.1499 -187.5322769 3213.375834
 477453.1499 187.5319992 -3213.367952
 477370.6991 619.5737959 -9418.228148
 477229.1974 1167.254742 -14926.55119
 477076.5143 1593.467844 -19165.89788
 476942.2567 2495.307252 -22174.95228
 0 0 0
 477131.5744 -3984.16716 17362.55898
 477250.9625 -2557.166071 14030.35851
 477380.8935 -1153.403769 8833.09103
 477454.3796 -340.4214024 3011.77559
 477454.3797 340.4209455 -3011.767656
 477380.8936 1153.403344 -8833.083128
 477250.9628 2557.165651 -14030.35055
 477131.5747 3984.16678 -17362.55102
 0 0 0
 0 0 0
 477121.9157 -7569.098576 16409.07021
 477263.2934 -3913.73532 13277.90552
 477397.0706 -1573.463985 7837.887822
 477456.2404 -541.3309159 2667.734535
 477456.2404 541.3303344 -2667.726579
 477397.0707 1573.463414 -7837.87984
 477263.2936 3913.734823 -13277.89759
 477121.916 7569.098102 -16409.06224
 0 0 0
 0 0 0
 0 0 0
 0 0 0
 477425.3908 -2534.574704 5517.558205
 477458.2788 -957.1500689 2132.415967
 477458.2788 957.1494007 -2132.407967
 477425.3909 2534.574042 -5517.550183
 0 0 0
 0 0 0
 0 0 0
 0 0 0
 0 0 0
 0 0 0
 477434.8454 2720.922267 4520.647318
 477459.6927 1028.335743 1748.034437
 477459.6928 -1028.335117 -1748.025947
 477434.8455 -2720.921642 -4520.638796
 0 0 0
 0 0 0
 0 0 0
 0 0 0
 477205.8492 7991.100693 13512.62558
 477319.608 4237.780851 10950.08141
 477416.9774 1767.273315 6463.572158
 477458.5416 606.915118 2200.902626
 477458.5417 -606.9145657 -2200.894161
 477416.9775 -1767.272792 -6463.563706
 477319.6082 -4237.780376 -10950.07297
 477205.8495 -7991.100253 -13512.61713
 0 0 0
 0 0 0
 477229.8297 4311.123283 14316.95333
 477314.7996 2807.411515 11600.51093
 477406.082 1302.646306 7321.700934
 477457.2945 389.6300932 2500.276926
 477457.2946 -389.6296747 -2500.268508
 477406.0821 -1302.645883 -7321.692489
 477314.7998 -2807.411146 -11600.50251
 477229.83 -4311.122915 -14316.94486
 0 0 0
 477107.0145 2676.567863 18264.82912
 477198.2694 1786.823425 15826.88435
 477301.707 1316.639534 12378.13533
 477399.1001 708.7860606 7840.163938
 477456.4247 216.7810877 2680.828468
 477456.4247 -216.7808135 -2680.820064
 477399.1002 -708.7858204 -7840.15555
 477301.7072 -1316.639274 -12378.1269
 477198.2696 -1786.823226 -15826.87595
 477107.0148 -2676.567714 -18264.82073
 477103.3783 1020.449828 18525.56103
 477182.6948 610.4725391 16376.03185
 477292.9541 395.1691905 12773.06252
 477395.4156 218.4482335 8089.547068
 477455.9804 68.28568518 2766.471797
 477455.9805 -68.28560263 -2766.463417
 477395.4157 -218.4481254 -8089.538673
 477292.9543 -395.1691314 -12773.05413
 477182.6951 -610.4724515 -16376.02344
 477103.3786 -1020.449777 -18525.55262
 477103.3783 -1020.449829 18525.56103
 477182.6948 -610.4725395 16376.03185
 477292.9541 -395.1691909 12773.06253
 477395.4156 -218.4482339 8089.547059
 477455.9804 -68.28568556 2766.471807
 477455.9805 68.28560225 -2766.463427
 477395.4157 218.448125 -8089.538664
 477292.9543 395.169131 -12773.05413
 477182.6951 610.4724512 -16376.02343
 477103.3786 1020.449777 -18525.55262
 477107.0145 -2676.567863 18264.82912
 477198.2694 -1786.823425 15826.88436
 477301.707 -1316.639534 12378.13532
 477399.1001 -708.786061 7840.163946
 477456.4247 -216.7810881 2680.828459
 477456.4247 216.7808131 -2680.820055
 477399.1002 708.78582 -7840.155558
 477301.7072 1316.639274 -12378.12689
 477198.2696 1786.823225 -15826.87595
 477107.0148 2676.567714 -18264.82073
 0 0 0
 477229.8297 -4311.123283 14316.95333
 477314.7996 -2807.411515 11600.51093
 477406.082 -1302.646306 7321.700928
 477457.2945 -389.6300936 2500.276933
 477457.2946 389.6296743 -2500.268514
 477406.0821 1302.645882 -7321.692483
 477314.7998 2807.411146 -11600.50251
 477229.83 4311.122915 -14316.94486
 0 0 0
 0 0 0
 477205.8492 -7991.100694 13512.62558
 477319.608 -4237.780852 10950.08141
 477416.9774 -1767.273315 6463.572162
 477458.5416 -606.9151184 2200.902622
 477458.5417 606.9145653 -2200.894157
 477416.9775 1767.272792 -6463.563709
 477319.6082 4237.780375 -10950.07297
 477205.8495 7991.100252 -13512.61713
 0 0 0
 0 0 0
 0 0 0
 0 0 0
 477434.8454 -2720.922267 4520.647317
 477459.6927 -1028.335743 1748.034438
 477459.6928 1028.335116 -1748.025948
 477434.8455 2720.921641 -4520.638795
 0 0 0
 0 0 0
 0 0 0
 0 0 0
 0 0 0
 0 0 0
 477441.1372 2881.656131 3678.024437
 477460.6361 1090.271756 1422.511756
 477460.6362 -1090.271159 -1422.502731
 477441.1373 -2881.65554 -3678.015382
 0 0 0
 0 0 0
 0 0 0
 0 0 0
 477263.633 8348.934523 11026.84202
 477358.8446 4523.023061 8941.313296
 477430.8846 1942.923196 5277.000765
 477460.1514 667.4374537 1797.125717
 477460.1514 -667.4369361 -1797.11672
 477430.8847 -1942.922686 -5276.991767
 477358.8447 -4523.02262 -8941.304334
 477263.6332 -8348.9341 -11026.83303
 0 0 0
 0 0 0
 477298.7322 4598.54025 11689.52476
 477360.1409 3036.781728 9483.943022
 477424.1932 1445.566138 5993.442958
 477459.4053 438.0186666 2048.355594
 477459.4053 -438.0182591 -2048.346629
 477424.1933 -1445.565762 -5993.433992
 477360.141 -3036.781353 -9483.934053
 477298.7324 -4598.539914 -11689.51577
 0 0 0
 477222.8945 2833.273851 14904.79274
 477284.8387 1962.021046 12930.76007
 477354.1936 1459.616525 10134.82311
 477419.9978 798.5337815 6432.6759
 477458.8569 247.0937902 2202.309857
 477458.857 -247.0935447 -2202.300917
 477419.9979 -798.533519 -6432.666955
 477354.1938 -1459.616317 -10134.81416
 477284.8389 -1962.020832 -12930.75112
 477222.8948 -2833.273716 -14904.78382
 477223.3202 1081.022864 15119.70204
 477275.8274 670.6045058 13386.79162
 477349.0164 443.5364229 10468.57662
 477417.6737 248.7711806 6646.371928
 477458.5677 78.51845531 2276.23527
 477458.5678 -78.51836108 -2276.226344
 477417.6738 -248.771118 -6646.362997
 477349.0166 -443.5363226 -10468.56769
 477275.8276 -670.6044545 -13386.78268
 477223.3204 -1081.022805 -15119.69309
 477223.3202 -1081.022864 15119.70203
 477275.8274 -670.6045061 13386.79163
 477349.0164 -443.5364233 10468.57662
 477417.6737 -248.771181 6646.371937
 477458.5677 -78.51845568 2276.23526
 477458.5678 78.51836071 -2276.226333
 477417.6738 248.7711176 -6646.363006
 477349.0166 443.5363222 -10468.56768
 477275.8276 670.6044541 -13386.78268
 477223.3204 1081.022805 -15119.69309
 477222.8945 -2833.273851 14904.79274
 477284.8387 -1962.021047 12930.76007
 477354.1936 -1459.616525 10134.82311
 477419.9978 -798.5337819 6432.675891
 477458.8569 -247.0937905 2202.309866
 477458.857 247.0935443 -2202.300926
 477419.9979 798.5335186 -6432.666947
 477354.1938 1459.616316 -10134.81416
 477284.8389 1962.020832 -12930.75111
 477222.8948 2833.273716 -14904.78382
 0 0 0
 477298.7322 -4598.540251 11689.52476
 477360.1409 -3036.781728 9483.943017
 477424.1932 -1445.566138 5993.442964
 477459.4053 -438.018667 2048.355587
 477459.4053 438.0182587 -2048.346622
 477424.1933 1445.565762 -5993.433998
 477360.141 3036.781353 -9483.934049
 477298.7324 4598.539914 -11689.51577
 0 0 0
 0 0 0
 477263.633 -8348.934523 11026.84202
 477358.8446 -4523.023061 8941.313298
 477430.8846 -1942.923197 5277.000761
 477460.1514 -667.4374541 1797.125721
 477460.1514 667.4369358 -1797.116724
 477430.8847 1942.922686 -5276.991764
 477358.8447 4523.02262 -8941.304336
 477263.6332 8348.9341 -11026.83303
 0 0 0
 0 0 0
 0 0 0
 0 0 0
 477441.1372 -2881.656131 3678.024438
 477460.6361 -1090.271756 1422.511755
 477460.6362 1090.271159 -1422.50273
 477441.1373 2881.65554 -3678.015383
 0 0 0
 0 0 0
 0 0 0
 0 0 0
 0 0 0
 0 0 0
 477445.1891 3013.645761 2980.040073
 477461.2444 1141.364427 1152.666089
 477461.2445 -1141.363857 -1152.656501
 477445.1892 -3013.645192 -2980.030458
 0 0 0
 0 0 0
 0 0 0
 0 0 0
 477301.8858 8641.032284 8950.625617
 477385.0825 4759.859921 7259.343613
 477440.2091 2090.616374 4283.379596
 477461.2306 718.7588339 1458.748083
 477461.2306 -718.7583329 -1458.738528
 477440.2092 -2090.615898 -4283.370028
 477385.0826 -4759.859489 -7259.334101
 477301.886 -8641.031883 -8950.616074
 0 0 0
 0 0 0
 477345.1798 4836.99828 9489.682339
 477390.9167 3230.925231 7703.577481
 477436.5736 1569.052798 4871.091492
 477460.8539 480.3554772 1665.40785
 477460.8539 -480.3550975 -1665.398314
 477436.5737 -1569.052415 -4871.081978
 477390.9168 -3230.924896 -7703.567938
 477345.18 -4836.997947 -9489.672794
 0 0 0
 477301.5406 2961.972256 12096.99599
 477343.8741 2109.251223 10499.91705
 477390.3059 1583.099865 8237.771486
 477434.5043 877.9880997 5233.982154
 477460.5543 274.3260222 1793.071473
 477460.5544 -274.3257746 -1793.061973
 477434.5044 -877.9878812 -5233.972632
 477390.3061 -1583.099631 -8237.761991
 477343.8743 -2109.251042 -10499.90753
 477301.5409 -2961.972121 -12096.98653
 477304.9312 1130.966029 12271.7092
 477339.6447 721.5580088 10872.6387
 477387.8551 485.8248479 8512.996836
 477433.2518 276.0031347 5411.575473
 477460.3894 87.85135577 1854.771309
 477460.3894 -87.85128062 -1854.761813
 477433.252 -276.003038 -5411.565983
 477387.8552 -485.8247936 -8512.98733
 477339.6449 -721.5579298 -10872.62921
 477304.9315 -1130.965983 -12271.6997
 477304.9312 -1130.966029 12271.7092
 477339.6447 -721.5580092 10872.6387
 477387.8551 -485.8248483 8512.996843
 477433.2518 -276.0031351 5411.575463
 477460.3894 -87.85135614 1854.77132
 477460.3894 87.85128025 -1854.761824
 477433.252 276.0030377 -5411.565973
 477387.8552 485.8247933 -8512.987338
 477339.6449 721.5579295 -10872.6292
 477304.9315 1130.965983 -12271.6997
 477301.5406 -2961.972257 12096.99599
 477343.8741 -2109.251224 10499.91705
 477390.3059 -1583.099866 8237.771479
 477434.5043 -877.9881001 5233.982162
 477460.5543 -274.3260225 1793.071463
 477460.5544 274.3257742 -1793.061963
 477434.5044 877.9878808 -5233.97264
 477390.3061 1583.099631 -8237.761984
 477343.8743 2109.251042 -10499.90754
 477301.5409 2961.972121 -12096.98652
 0 0 0
 477345.1798 -4836.998281 9489.682338
 477390.9167 -3230.925232 7703.577485
 477436.5736 -1569.052798 4871.091486
 477460.8539 -480.3554776 1665.407857
 477460.8539 480.3550972 -1665.398322
 477436.5737 1569.052415 -4871.081972
 477390.9168 3230.924896 -7703.567942
 477345.18 4836.997946 -9489.672792
 0 0 0
 0 0 0
 477301.8858 -8641.032285 8950.625617
 477385.0825 -4759.859921 7259.343611
 477440.2091 -2090.616374 4283.379599
 477461.2306 -718.7588342 1458.748079
 477461.2306 718.7583325 -1458.738524
 477440.2092 2090.615898 -4283.370032
 477385.0826 4759.859489 -7259.334099
 477301.886 8641.031883 -8950.616075
 0 0 0
 0 0 0
 0 0 0
 0 0 0
 477445.1891 -3013.645761 2980.040072
 477461.2444 -1141.364427 1152.666091
 477461.2445 1141.363856 -1152.656503
 477445.1892 3013.645192 -2980.030457
 0 0 0
 0 0 0
 0 0 0
 0 0 0
 0 0 0
 0 0 0
 477447.731 3118.98811 2409.845991
 477461.6264 1182.242424 932.1436387
 477461.6264 -1182.241873 -932.1334762
 477447.7311 -3118.987563 -2409.83579
 0 0 0
 0 0 0
 0 0 0
 0 0 0
 477326.5329 8873.751542 7246.294636
 477402.1654 4950.125113 5877.073005
 477446.2982 2209.954305 3466.944913
 477461.9348 760.3972338 1180.62861
 477461.9349 -760.3967546 -1180.618465
 477446.2983 -2209.953837 -3466.934794
 477402.1656 -4950.124703 -5877.062901
 477326.5331 -8873.751152 -7246.284529
 0 0 0
 0 0 0
 477375.7144 5028.455361 7682.006714
 477411.2342 3388.371914 6237.285795
 477444.7836 1670.229296 3944.648159
 477461.8167 515.262706 1348.844302
 477461.8167 -515.2623333 -1348.834205
 477444.7837 -1670.228944 -3944.638026
 477411.2343 -3388.371574 -6237.275718
 477375.7146 -5028.455048 -7681.996575
 0 0 0
 477353.745 3064.626872 9791.90722
 477383.1317 2228.138807 8500.130886
 477414.4204 1684.23615 6671.271504
 477444.2361 943.9057553 4240.488091
 477461.6963 297.0911115 1453.126394
 477461.6964 -297.0908824 -1453.116298
 477444.2362 -943.905522 -4240.47803
 477414.4205 -1684.23595 -6671.261392
 477383.1319 -2228.138616 -8500.120824
 477353.7453 -3064.626746 -9791.897183
 477359.2315 1170.878683 9932.997699
 477382.2455 762.8604193 8802.330929
 477413.9237 520.6703484 6895.338142
 477443.7643 298.7618476 4385.657236
 477461.6226 95.71594458 1503.678974
 477461.6227 -95.71586172 -1503.668904
 477443.7644 -298.7617809 -4385.647151
 477413.9238 -520.6702662 -6895.328079
 477382.2457 -762.8603648 -8802.32085
 477359.2317 -1170.878632 -9932.98764
 477359.2315 -1170.878684 9932.997698
 477382.2455 -762.8604197 8802.330933
 477413.9237 -520.6703487 6895.338135
 477443.7643 -298.761848 4385.657245
 477461.6226 -95.71594493 1503.678964
 477461.6227 95.71586136 -1503.668894
 477443.7644 298.7617806 -4385.64716
 477413.9238 520.6702659 -6895.328072
 477382.2457 762.8603645 -8802.320854
 477359.2317 1170.878631 -9932.987639
 477353.745 -3064.626872 9791.907221
 477383.1317 -2228.138808 8500.130882
 477414.4204 -1684.23615 6671.27151
 477444.2361 -943.9057556 4240.488083
 477461.6963 -297.0911119 1453.126403
 477461.6964 297.0908821 -1453.116307
 477444.2362 943.9055216 -4240.478022
 477414.4205 1684.235949 -6671.261398
 477383.1319 2228.138615 -8500.120821
 477353.7453 3064.626745 -9791.897184
 0 0 0
 477375.7144 -5028.455362 7682.006715
 477411.2342 -3388.371914 6237.285791
 477444.7836 -1670.229297 3944.648165
 477461.8167 -515.2627063 1348.844295
 477461.8167 515.2623329 -1348.834198
 477444.7837 1670.228944 -3944.638032
 477411.2343 3388.371574 -6237.275714
 477375.7146 5028.455048 -7681.996577
 0 0 0
 0 0 0
 477326.5329 -8873.751542 7246.294636
 477402.1654 -4950.125113 5877.073006
 477446.2982 -2209.954305 3466.944909
 477461.9348 -760.3972342 1180.628614
 477461.9349 760.3967543 -1180.618469
 477446.2983 2209.953837 -3466.934791
 477402.1656 4950.124702 -5877.062902
 477326.5331 8873.751152 -7246.284528
 0 0 0
 0 0 0
 0 0 0
 0 0 0
 477447.731 -3118.98811 2409.845991
 477461.6264 -1182.242424 932.1436374
 477461.6264 1182.241872 -932.1334749
 477447.7311 3118.987563 -2409.835791
 0 0 0
 0 0 0
 0 0 0
 0 0 0
 0 0 0
 0 0 0
 477449.2895 3201.709627 1948.41142
 477461.8609 1214.385305 753.6472583
 477461.8609 -1214.38477 -753.6365034
 477449.2895 -3201.709095 -1948.400639
 0 0 0
 0 0 0
 0 0 0
 0 0 0
 477342.0979 9056.453768 5862.88919
 477413.0856 5100.133611 4754.533782
 477450.2053 2304.29694 2804.107021
 477462.3861 793.3810578 954.8170684
 477462.3862 -793.3805917 -954.806353
 477450.2053 -2304.296489 -2804.09628
 477413.0858 -5100.133211 -4754.523122
 477342.0981 -9056.45339 -5862.878491
 0 0 0
 0 0 0
 477395.4645 5179.332176 6214.204059
 477424.4165 3513.08744 5045.394985
 477450.1283 1750.791404 3190.777061
 477462.4444 543.1477242 1091.066889
 477462.4445 -543.1473654 -1091.056181
 477450.1283 -1750.791057 -3190.766401
 477424.4166 -3513.087116 -5045.384268
 477395.4646 -5179.331869 -6214.193364
 0 0 0
 477387.9305 3145.176888 7921.04625
 477408.8462 2322.068469 6875.529198
 477430.2424 1764.740926 5396.352682
 477450.6363 996.7321343 3430.415063
 477462.4485 315.4088712 1175.621387
 477462.4485 -315.4086461 -1175.610726
 477450.6363 -996.7319162 -3430.404363
 477430.2425 -1764.740723 -5396.342045
 477408.8463 -2322.068289 -6875.51852
 477387.9307 -3145.176764 -7921.035647
 477394.878 1202.223384 8034.700316
 477410.2512 795.5493991 7119.724576
 477431.105 548.4909627 5577.675421
 477450.7112 317.0704784 3548.113613
 477462.439 102.0706148 1216.656403
 477462.439 -102.0705383 -1216.645737
 477450.7113 -317.0704045 -3548.102964
 477431.1051 -548.4908936 -5577.66475
 477410.2513 -795.5493386 -7119.713935
 477394.8782 -1202.223336 -8034.689675
 477394.878 -1202.223384 8034.700317
 477410.2512 -795.5493994 7119.724572
 477431.105 -548.4909631 5577.675427
 477450.7112 -317.0704788 3548.113605
 477462.439 -102.0706152 1216.656412
 477462.439 102.070538 -1216.645746
 477450.7113 317.0704042 -3548.102956
 477431.1051 548.4908932 -5577.664756
 477410.2513 795.5493383 -7119.713931
 477394.8782 1202.223335 -8034.689676
 477387.9305 -3145.176889 7921.04625
 477408.8462 -2322.068469 6875.529201
 477430.2424 -1764.740927 5396.352677
 477450.6363 -996.7321347 3430.41507
 477462.4485 -315.4088715 1175.621379
 477462.4485 315.4086457 -1175.610718
 477450.6363 996.7319158 -3430.404369
 477430.2425 1764.740723 -5396.34204
 477408.8463 2322.068288 -6875.518523
 477387.9307 3145.176764 -7921.035646
 0 0 0
 477395.4645 -5179.332176 6214.204058
 477424.4165 -3513.08744 5045.394988
 477450.1283 -1750.791404 3190.777056
 477462.4444 -543.1477246 1091.066895
 477462.4445 543.1473651 -1091.056187
 477450.1283 1750.791056 -3190.766396
 477424.4166 3513.087116 -5045.384272
 477395.4646 5179.331869 -6214.193363
 0 0 0
 0 0 0
 477342.0979 -9056.453768 5862.88919
 477413.0856 -5100.133612 4754.53378
 477450.2053 -2304.29694 2804.107024
 477462.3861 -793.3810581 954.8170648
 477462.3862 793.3805914 -954.8063494
 477450.2053 2304.296489 -2804.096283
 477413.0858 5100.133211 -4754.523121
 477342.0981 9056.45339 -5862.878492
 0 0 0
 0 0 0
 0 0 0
 0 0 0
 477449.2895 -3201.709627 1948.411419
 477461.8609 -1214.385305 753.6472594
 477461.8609 1214.38477 -753.6365045
 477449.2895 3201.709095 -1948.400638
 0 0 0
 0 0 0
 0 0 0
 0 0 0
 0 0 0
 0 0 0
 477450.2236 3266.113279 1577.25935
 477462.0016 1239.429431 610.0592177
 477462.0016 -1239.42891 -610.0478765
 477450.2237 -3266.11276 -1577.247968
 0 0 0
 0 0 0
 0 0 0
 0 0 0
 477351.769 9198.728832 4747.981404
 477419.9742 5217.209277 3849.709189
 477452.6819 2378.020119 2269.991908
 477462.6718 819.1816147 772.8656723
 477462.6718 -819.1811595 -772.8543495
 477452.682 -2378.019683 -2269.980615
 477419.9743 -5217.208885 -3849.697917
 477351.7691 -9198.728465 -4747.97013
 0 0 0
 0 0 0
 477408.1055 5297.039087 5031.250876
 477432.8776 3610.645048 4084.349555
 477453.5692 1813.978363 2582.644319