# ODT 1.0
# Table Start
# Title: mmArchive Data Table, Sun Dec 11 12:06:17 EET 2022
# Columns: {Oxs_CGEvolve::Max mxHxm} {Oxs_CGEvolve::Total energy} {Oxs_CGEvolve::Delta E} {Oxs_CGEvolve::Bracket count} {Oxs_CGEvolve::Line min count} {Oxs_CGEvolve::Conjugate cycle count} {Oxs_CGEvolve::Cycle count} {Oxs_CGEvolve::Cycle sub count} {Oxs_CGEvolve::Energy calc count} Oxs_UniaxialAnisotropy::Energy Oxs_UniformExchange::Energy {Oxs_UniformExchange::Max Spin Ang} {Oxs_UniformExchange::Stage Max Spin Ang} {Oxs_UniformExchange::Run Max Spin Ang} Oxs_Demag::Energy    Oxs_MinDriver::Iteration {Oxs_MinDriver::Stage iteration} Oxs_MinDriver::Stage Oxs_MinDriver::mx    Oxs_MinDriver::my    Oxs_MinDriver::mz   
# Units:              A/m                         J                          J                         {}                             {}                                {}                               {}                            {}                               {}                               J                             J                              deg                                    deg                                      deg                           J                       {}                           {}                         {}                 {}                   {}                   {}           
              0.00094845986334512089         3.0254169079459728e-16       0                          3227                           1308                              382                              2933                          402                              4536                             5.204915433244546e-17          1.7232309306442124e-16             11.969035110090292                     179.93108622651104                       179.93108622651104             7.8169443397730561e-17    4296                         4296                       0                   -0.35004029646078466 -1.7658024078178293e-10  7.5065313472958411e-11
# Table End
