# ODT 1.0
# Table Start
# Title: mmArchive Data Table, Wed May 29 23:08:17 EDT 2019
# Columns: {Oxs_CGEvolve:evolve:Max mxHxm} {Oxs_CGEvolve:evolve:Total energy} {Oxs_CGEvolve:evolve:Delta E} {Oxs_CGEvolve:evolve:Bracket count} {Oxs_CGEvolve:evolve:Line min count} {Oxs_CGEvolve:evolve:Conjugate cycle count} {Oxs_CGEvolve:evolve:Cycle count} {Oxs_CGEvolve:evolve:Cycle sub count} {Oxs_CGEvolve:evolve:Energy calc count} Oxs_UniformExchange::Energy {Oxs_UniformExchange::Max Spin Ang} {Oxs_UniformExchange::Stage Max Spin Ang} {Oxs_UniformExchange::Run Max Spin Ang} Oxs_CubicAnisotropy::Energy Oxs_UniaxialAnisotropy::Energy Oxs_Demag::Energy    Oxs_UZeeman::Energy  Oxs_UZeeman::B       Oxs_UZeeman::Bx      Oxs_UZeeman::By      Oxs_UZeeman::Bz      Oxs_MinDriver::Iteration {Oxs_MinDriver::Stage iteration} Oxs_MinDriver::Stage Oxs_MinDriver::mx    Oxs_MinDriver::my    Oxs_MinDriver::mz   
# Units:                 A/m                               J                                J                               {}                                   {}                                      {}                                     {}                                  {}                                     {}                                 J                              deg                                    deg                                      deg                                J                            J                        J                     J                 mT                   mT                   mT                   mT                        {}                           {}                         {}                 {}                   {}                   {}           
                 229935.82332754767                1.6047570870829978e-16             1.6047570870829978e-16              0                                    0                                       1                                      1                                   0                                      1                                 0                               0                                      0                                        0                                 1.5817765522428129e-17           1.6810146834408005e-16       1.1059588419761025e-17 -3.4503113577969423e-17  100.31948963187563   100                  8                    0                      0                            0                          0                    0.99503719020998771  0.099503719020998777  0                  
                 228950.50146936058                1.6045947251813381e-16            -1.6236190165970753e-20              1                                    0                                       1                                      1                                   0                                      2                                 1.6997785701941944e-23             0.052846691128796031                    0.052846691128796031                      0.052846691128796031               1.5803167510869889e-17           1.6810146010195472e-16       1.1057908863557011e-17 -3.4503080956033529e-17  100.31948963187563   100                  8                    0                      1                            1                          0                    0.99503273548599658  0.099547549169782271  5.4868407757418478e-05
                 249594.00567585355                1.5798778234198772e-16            -2.4716901761460927e-18              2                                    0                                       1                                      1                                   0                                      3                                 6.8777768309817148e-19             10.647200374051376                     10.647200374051376                       10.647200374051376                1.2939073246447969e-17           1.6776812853493256e-16       1.0989952537462877e-17 -3.4397149659953862e-17  100.31948963187563   100                  8                    0                      2                            2                          0                    0.9912743907057685   0.10803438214950316  0.011048893958467016
                 621449.71840427676                1.5655173126914675e-16            -1.4360510728409713e-18              3                                    0                                       2                                      2                                   0                                      4                                 6.9723066836995345e-19             10.460853903675645                     10.647200374051376                       10.647200374051376                1.13674551014771e-17           1.6719122048127998e-16       1.1526309978131098e-17 -3.4230484960111386e-17  100.31948963187563   100                  8                    0                      3                            3                          0                    0.98607139787938669  0.1125104916644185   0.021712549343133346
                 445001.23599663086                1.5569195410116936e-16            -8.5977716797738752e-19              4                                    0                                       3                                      3                                   0                                      5                                 7.542968280482239e-19             13.094796905580276                     13.094796905580276                       13.094796905580276                1.0543902847609083e-17           1.6684809774469419e-16       1.1693365768823587e-17 -3.4147709088005701e-17  100.31948963187563   100                  8                    0                      4                            4                          0                    0.98353883810940623  0.11408904689030601  0.025954440940314953
                 444816.50985089917                1.5637490828292948e-16             6.829541817601187e-19              4                                    0                                       4                                      4                                   0                                      6                                 7.542968280482239e-19             13.094796905580276                     13.094796905580276                       13.094796905580276                1.0543902847609083e-17           1.6684809774469419e-16       1.1693365768823587e-17 -3.3464754906245588e-17  98.313099839238106   98                   7.8400000000000007   0                      5                            0                          1                    0.98353883810940623  0.11408904689030601  0.025954440940314953
                 622231.12213741511                1.5583713071642152e-16            -5.3777756650796134e-19              5                                    0                                       4                                      4                                   0                                      7                                 9.39781180054757e-19             13.727659111323645                     13.727659111323645                       13.727659111323645                9.8806426005494756e-18           1.6636925439807947e-16       1.1999677070732247e-17 -3.3352224532994432e-17  98.313099839238106   98                   7.8400000000000007   0                      6                            1                          1                    0.98007296335876115  0.11568758611320487  0.031107932286536071
                 651574.78763433604                1.5583672605666176e-16            -4.0465975975666698e-22              6                                    1                                       4                                      4                                   0                                      9                                 9.5856329209845052e-19             13.926212168156644                     13.926212168156644                       13.926212168156644                9.8624192240594364e-18           1.6635442024967169e-16       1.2009931900915811e-17 -3.3348608610083642e-17  98.313099839238106   98                   7.8400000000000007   0                      7                            2                          1                    0.97996217988853784  0.11573163920905008  0.031253669124125992
                 538415.66700282879                1.5445588916597789e-16            -1.3808368906838682e-18              7                                    1                                       4                                      5                                   1                                      10                                1.3964575446628653e-18             14.789046547635573                     14.789046547635573                       14.789046547635573                8.2339779889507976e-18           1.6473624146529787e-16       1.3061530725850859e-17 -3.2972318558784515e-17  98.313099839238106   98                   7.8400000000000007   0                      8                            3                          1                    0.96847947649486954  0.11974165252338927  0.04475368468158706
                 572457.14499552804                1.541318725796757e-16            -3.2401658630219154e-19              8                                    1                                       5                                      6                                   0                                      11                                1.5277648474639759e-18             17.291289539844964                     17.291289539844964                       17.291289539844964                7.8343244754198487e-18           1.6428465864876743e-16       1.3356481647196261e-17 -3.287135703917181e-17  98.313099839238106   98                   7.8400000000000007   0                      9                            4                          1                    0.96539699915274579  0.12083731450760889  0.048417293381060642
                 572238.54413928662                1.5480271660088331e-16             6.7084402120760833e-19              8                                    1                                       6                                      7                                   0                                      12                                1.5277648474639759e-18             17.291289539844964                     17.291289539844964                       17.291289539844964                7.8343244754198487e-18           1.6428465864876743e-16       1.3356481647196261e-17 -3.2200513017964214e-17  96.306710046600585   96                   7.6799999999999997   0                      10                           0                          2                    0.96539699915274579  0.12083731450760889  0.048417293381060642
                 578717.06103459175                1.5455099977842656e-16            -2.5171682245675155e-19              9                                    1                                       6                                      7                                   0                                      13                                1.5707527851891335e-18             16.038694932520571                     17.291289539844964                       17.291289539844964                7.6055462494218137e-18           1.6386343371175177e-16       1.3621122059228375e-17 -3.2109855027164549e-17  96.306710046600585   96                   7.6799999999999997   0                      11                           1                          2                    0.96257692897591485  0.12177300019074128  0.051680047316569118
                 246670.20688026241                1.5449856126845935e-16            -5.2438509967203889e-20              9                                    2                                       6                                      7                                   0                                      14                                1.4410363172218648e-18             15.252940089779306                     17.291289539844964                       17.291289539844964                7.6701816848179783e-18           1.6399118014306743e-16       1.3534757036629481e-17 -3.2138593913277405e-17  96.306710046600585   96                   7.6799999999999997   0                      12                           2                          2                    0.9634685344856333   0.12150596173383374  0.050724177847659181
                 249956.97772947315                1.5418910912456428e-16            -3.0945214389507166e-19              10                                   2                                       6                                      8                                   1                                      15                                1.5414715867670747e-18             15.687429346666036                     17.291289539844964                       17.291289539844964                7.3470674504947994e-18           1.6344906980894296e-16       1.3872945344238562e-17 -3.2021445065879129e-17  96.306710046600585   96                   7.6799999999999997   0                      13                           3                          2                    0.95982603967012392  0.1226948324752216   0.054759774218632817
                 256744.78802176163                1.539439109155572e-16            -2.4519820900708548e-19              11                                   2                                       6                                      8                                   1                                      16                                1.6725263273258918e-18             16.140400787408943                     17.291289539844964                       17.291289539844964                7.0561619096721534e-18           1.6289591775627344e-16       1.4220189749202848e-17 -3.1900884826917113e-17  96.306710046600585   96                   7.6799999999999997   0                      14                           4                          2                    0.95608941346807741  0.1237690908685045   0.058558449916436099
                 257434.79793851051                1.5460851268278463e-16             6.6460176722743009e-19              11                                   2                                       7                                      9                                   0                                      17                                1.6725263273258918e-18             16.140400787408943                     16.140400787408943                       17.291289539844964                7.0561619096721534e-18           1.6289591775627344e-16       1.4220189749202848e-17 -3.123628305968967e-17  94.300320253963093   94                   7.5199999999999996   0                      15                           0                          3                    0.95608941346807741  0.1237690908685045   0.058558449916436099
                 651902.72206847463                1.5457983307836163e-16            -2.8679604423000684e-20              12                                   2                                       7                                      9                                   0                                      18                                2.2750556791422474e-18             19.279946172417546                     19.279946172417546                       19.279946172417546                6.568503622130336e-18           1.6202805268573863e-16       1.4760611545941285e-17 -3.1052390454590891e-17  94.300320253963093   94                   7.5199999999999996   0                      16                           1                          3                    0.95026407576401517  0.12549917301370567  0.06441735922166536
                 250399.51810439979                1.5438716923984968e-16            -1.9266383851194166e-19              12                                   3                                       7                                      9                                   0                                      19                                1.8020227770350199e-18             16.65036537136664                      19.279946172417546                       19.279946172417546                6.7919089189968652e-18           1.6246040272355414e-16       1.4478860168116821e-17 -3.1146025347853152e-17  94.300320253963093   94                   7.5199999999999996   0                      17                           2                          3                    0.95322386073852317  0.12469793226290962  0.061616706800932855
                 238247.03691477005                1.5399970880003152e-16            -3.8746043981816254e-19              13                                   3                                       7                                      10                                  1                                      20                                2.0037840628858746e-18             17.193210264070085                     19.279946172417546                       19.279946172417546                6.3776744705373576e-18           1.6154569534540045e-16       1.5030218610064095e-17 -3.095766368885627e-17  94.300320253963093   94                   7.5199999999999996   0                      18                           3                          3                    0.94726885074007583  0.12632133354666059  0.067512089469621811
                 370784.32213682728                1.5387198152647964e-16            -1.2772727355188518e-19              14                                   3                                       8                                      11                                  0                                      21                                2.0857494277056398e-18             17.511325633821709                     19.279946172417546                       19.279946172417546                6.2591482404014602e-18           1.6105898055137648e-16       1.5331006108823818e-17 -3.0862902801827752e-17  94.300320253963093   94                   7.5199999999999996   0                      19                           4                          3                    0.94428748615318248  0.12695704848251249  0.070555610490362894
                 370750.68857044319                1.5452863903290151e-16             6.566575064218752e-19              14                                   3                                       9                                      12                                  0                                      22                                2.0857494277056398e-18             17.511325633821709                     17.511325633821709                       19.279946172417546                6.2591482404014602e-18           1.6105898055137648e-16       1.5331006108823818e-17 -3.0206245295405889e-17  92.293930461325573   92                   7.3600000000000003   0                      20                           0                          4                    0.94428748615318248  0.12695704848251249  0.070555610490362894
                 152490.67718118097                1.5435474317602186e-16            -1.7389585687964756e-19              15                                   4                                       9                                      12                                  0                                      24                                2.0641619375202428e-18             17.604754581828491                     17.604754581828491                       19.279946172417546                6.1544011965926915e-18           1.6085706137701053e-16       1.5447977813247893e-17 -3.0168859148349478e-17  92.293930461325573   92                   7.3600000000000003   0                      21                           1                          4                    0.94308471572578756  0.12722528479672798  0.071799837865406196
                 153971.79466872706                1.5425712553139161e-16            -9.7617644630253031e-20              16                                   4                                       9                                      13                                  1                                      25                                2.146628881124009e-18             17.486121512355204                     17.604754581828491                       19.279946172417546                6.0382203668421119e-18           1.6052461281067798e-16       1.5653878059864464e-17 -3.010621458711697e-17  92.293930461325573   92                   7.3600000000000003   0                      22                           2                          4                    0.94107633526761414  0.12758733907652806  0.073765150016346551
                 340497.86405917071                1.542523742425917e-16            -4.7512887999091518e-21              17                                   4                                       9                                      13                                  1                                      26                                2.3071650049997396e-18             18.183093018572503                     18.183093018572503                       19.279946172417546                5.9331535481247867e-18           1.6018258646263262e-16       1.5870147335632218e-17 -3.0040678108797677e-17  92.293930461325573   92                   7.3600000000000003   0                      23                           3                          4                    0.93897911962824609  0.12791761359443304  0.075696074782005754
                 255895.93644895055                1.5424292711099884e-16            -9.4471315928607511e-21              17                                   5                                       9                                      13                                  1                                      27                                2.2254998996959467e-18             17.797388859595067                     18.183093018572503                       19.279946172417546                5.9788441464881122e-18           1.6033712091737402e-16       1.5771892983030659e-17 -3.0070430835589892e-17  92.293930461325573   92                   7.3600000000000003   0                      24                           4                          4                    0.93993076603846148  0.12777345804026369  0.074834289985239208
                 255818.32179926577                1.5489663212916384e-16             6.5370501816499578e-19              17                                   5                                       10                                     14                                  0                                      28                                2.2254998996959467e-18             17.797388859595067                     17.797388859595067                       19.279946172417546                5.9788441464881122e-18           1.6033712091737402e-16       1.5771892983030659e-17 -2.9416725817424896e-17  90.287540668688067   90                   7.1999999999999993   0                      25                           0                          5                    0.93993076603846148  0.12777345804026369  0.074834289985239208
                 118648.78908874746                1.5480809314794564e-16            -8.853898121819731e-20              18                                   6                                       10                                     14                                  0                                      30                                2.1939411420309751e-18             17.733580002879542                     17.797388859595067                       19.279946172417546                5.9535685492101806e-18           1.6019360997961868e-16       1.5858416002356664e-17 -2.9391442525270882e-17  90.287540668688067   90                   7.1999999999999993   0                      26                           1                          5                    0.93910516376747777  0.12788543888475482  0.075662040777681516
                 108977.18950699126                1.5474375759503685e-16            -6.4335552908790865e-20              19                                   6                                       10                                     15                                  1                                      31                                2.2278414341751068e-18             17.653402744105271                     17.797388859595067                       19.279946172417546                5.9031309549647838e-18           1.5995056557436333e-16       1.600998222166736e-17 -2.934776259013372e-17  90.287540668688067   90                   7.1999999999999993   0                      27                           2                          5                    0.93768037939404303  0.1280596108261213   0.077030790687834541
                 286191.15673055581                1.5472861857676428e-16            -1.5139018272573358e-20              20                                   6                                       10                                     15                                  1                                      32                                2.389237159343842e-18             18.024053458072164                     18.024053458072164                       19.279946172417546                5.8175346857963547e-18           1.5944495087720414e-16       1.6332121442089376e-17 -2.9255225587669416e-17  90.287540668688067   90                   7.1999999999999993   0                      28                           3                          5                    0.93466708943369081  0.1283642194776892   0.079745880129696731
                 192108.89568037199                1.547160706639079e-16            -1.2547912856378719e-20              20                                   7                                       10                                     15                                  1                                      33                                2.309528116810393e-18             17.830316869932965                     18.024053458072164                       19.279946172417546                5.8491610646282403e-18           1.5965006189323085e-16       1.6200365209533905e-17 -2.9293045620295509e-17  90.287540668688067   90                   7.1999999999999993   0                      29                           4                          5                    0.93589782650079079  0.1282497221539981   0.078664646325220369
                 191968.37176903707                1.5536702723324779e-16             6.5095656933988855e-19              20                                   7                                       11                                     16                                  0                                      34                                2.309528116810393e-18             17.830316869932965                     17.830316869932965                       19.279946172417546                5.8491610646282403e-18           1.5965006189323085e-16       1.6200365209533905e-17 -2.8642089050955601e-17  88.281150876050546   88                   7.0399999999999991   0                      30                           0                          6                    0.93589782650079079  0.1282497221539981   0.078664646325220369
                 88913.756588848279                1.5529755386196394e-16            -6.9473371283844211e-20              21                                   8                                       11                                     16                                  0                                      36                                2.3262375260737135e-18             17.84501921243314                      17.84501921243314                        19.279946172417546                5.7962956024066952e-18           1.5950052362889674e-16       1.6290728932651424e-17 -2.8616231828064647e-17  88.281150876050546   88                   7.0399999999999991   0                      31                           1                          6                    0.93503677059406809  0.12833588325887832  0.079489158383113365
                 97138.861484724213                1.5525526734189965e-16            -4.2286520064291748e-20              22                                   8                                       11                                     17                                  1                                      37                                2.3907906448006643e-18             17.880008599151122                     17.880008599151122                       19.279946172417546                5.7401035397745307e-18           1.5924996676063063e-16       1.6446994609959872e-17 -2.8572588213266069e-17  88.281150876050546   88                   7.0399999999999991   0                      32                           2                          6                    0.93358658848066589  0.12844171461223661  0.080837744780919041
                 135138.19934060186                1.552519280165903e-16            -3.3393253093461777e-21              23                                   9                                       11                                     17                                  1                                      39                                2.4251815959465463e-18             17.990466892433645                     17.990466892433645                       19.279946172417546                5.720655157688247e-18           1.5915603321442481e-16       1.6506133211821494e-17 -2.8556075163290793e-17  88.281150876050546   88                   7.0399999999999991   0                      33                           3                          6                    0.9330382589239592   0.12847721869412709  0.081332928980339239