# OOMMF OVF 2.0
#
# Segment count: 1
#
# Begin: Segment
# Begin: Header
#
# Title: Oxs_MinDriver::Magnetization
# Desc: Oxs vector field output
# Desc:  MIF source file: F:/Bogdan/UNIC/2022/Master_degree/Samples/Cylinder11_7.mif
# Desc:  Iteration: 1612, State id: 3444
# Desc:  Stage: 3, Stage iteration: 65
# Desc:  Stage simulation time: 0 s
# Desc:  Total simulation time: -2 s
# meshunit: m
# meshtype: rectangular
# xbase: -2.0999999999999999e-08
# ybase: -2.0999999999999999e-08
# zbase: -8.9999999999999995e-09
# xnodes: 22
# ynodes: 22
# znodes: 10
# xstepsize: 2.0000000000000001e-09
# ystepsize: 2.0000000000000001e-09
# zstepsize: 2.0000000000000001e-09
# xmin: -2.1999999999999998e-08
# ymin: -2.1999999999999998e-08
# zmin: -1e-08
# xmax: 2.2000000000000005e-08
# ymax: 2.2000000000000005e-08
# zmax: 1e-08
# valuedim: 3
# valuelabels: Magnetization_x Magnetization_y Magnetization_z
# valueunits: A/m A/m A/m
#
# End: Header
#
# Begin: Data Text
 0 0 0
 0 0 0
 0 0 0
 0 0 0
 0 0 0
 0 0 0
 0 0 0
 0 0 0
 10916.79192 52892.03703 474399.7548
 7158.598649 52943.73699 474465.5799
 2453.10328 52980.34531 474509.1533
 -2453.11947 52980.34455 474509.1533
 -7158.614696 52943.73483 474465.5799
 -10916.80775 52892.03383 474399.7548
 0 0 -0
 0 0 -0
 0 0 -0
 0 0 -0
 0 0 -0
 0 0 -0
 0 0 -0
 0 0 -0
 0 0 0
 0 0 0
 0 0 0
 0 0 0
 0 0 0
 26538.59065 47562.24303 474347.349
 23009.14232 47824.2431 474505.3134
 18312.59516 48210.04329 474670.7405
 12675.63903 49346.96459 474737.903
 7640.254331 49560.86613 474823.3549
 2558.201564 49600.27138 474873.8148
 -2558.217557 49600.27054 474873.8148
 -7640.270174 49560.86359 474823.3549
 -12675.65456 49346.96043 474737.903
 -18312.61018 48210.03716 474670.7405
 -23009.15677 47824.23555 474505.3135
 -26538.60463 47562.23458 474347.3491
 0 0 -0
 0 0 -0
 0 0 -0
 0 0 -0
 0 0 -0
 0 0 0
 0 0 0
 0 0 0
 0 0 0
 32092.52296 42811.84857 474456.6228
 27999.64986 43967.12919 474610.1373
 23412.84546 44308.58752 474826.7674
 18404.26664 44503.67641 475029.0276
 13083.49535 44784.22431 475178.9839
 7839.965697 44851.20303 475288.0977
 2613.036361 44850.58808 475345.6301
 -2613.051885 44850.58711 475345.6301
 -7839.981059 44851.20019 475288.0977
 -13083.51043 44784.21959 475178.9839
 -18404.28125 44503.66991 475029.0276
 -23412.85955 44308.57944 474826.7675
 -27999.66334 43967.11988 474610.1374
 -32092.5358 42811.83817 474456.6228
 0 0 -0
 0 0 -0
 0 0 -0
 0 0 -0
 0 0 0
 0 0 0
 0 0 0
 37550.90775 37550.9325 474501.5575
 33465.80313 38841.22508 474703.3501
 28694.59634 39388.60961 474970.5558
 23644.95843 39545.02848 475235.7078
 18437.58008 39572.54037 475463.9219
 13144.02799 39584.91527 475638.6657
 7871.459404 39552.28043 475757.8465
 2621.188922 39519.93486 475818.4269
 -2621.203654 39519.93383 475818.4269
 -7871.474003 39552.27729 475757.8466
 -13144.04228 39584.91017 475638.6657
 -18437.59399 39572.53334 475463.9219
 -23644.97178 39545.01981 475235.7078
 -28694.60911 39388.59947 474970.5559
 -33465.8152 38841.21376 474703.3501
 -37550.91904 37550.92014 474501.5576
 0 0 -0
 0 0 -0
 0 0 -0
 0 0 0
 0 0 0
 42811.8258 32092.54929 474456.623
 38841.20123 33465.82882 474703.3502
 34085.13088 34085.15575 475024.5018
 28957.15168 34295.94269 475349.4956
 23688.83316 34294.14207 475641.2748
 18382.22151 34212.13309 475881.808
 13085.42901 34119.46377 476063.5515
 7828.688684 34035.73938 476184.997
 2605.454722 33985.52452 476245.8053
 -2605.468344 33985.52338 476245.8053
 -7828.70216 34035.73604 476184.997
 -13085.44225 34119.45825 476063.5515
 -18382.23433 34212.12562 475881.808
 -23688.84553 34294.13274 475641.2749
 -28957.16344 34295.93186 475349.4957
 -34085.14199 34085.14357 475024.5019
 -38841.21157 33465.81563 474703.3503
 -42811.83528 32092.53524 474456.6231
 0 0 -0
 0 0 -0
 0 0 0
 47562.22235 26538.61807 474347.3496
 43967.10743 27999.67697 474610.1377
 39388.58679 28694.62293 474970.5561
 34295.91889 28957.17747 475349.4958
 28979.54829 28979.57301 475701.8409
 23607.70192 28881.17048 476004.6488
 18262.90774 28741.47538 476248.113
 12977.55143 28607.71828 476429.4837
 7755.862157 28503.86427 476549.3129
 2579.847043 28446.98342 476608.8384
 -2579.859219 28446.98222 476608.8384
 -7755.874226 28503.8607 476549.3129
 -12977.56324 28607.71245 476429.4837
 -18262.91924 28741.4674 476248.113
 -23607.71295 28881.16065 476004.6489
 -28979.55882 28979.56148 475701.841
 -34295.92879 28957.16462 475349.4958
 -39388.59603 28694.60896 474970.5562
 -43967.11592 27999.66224 474610.1378
 -47562.23003 26538.60279 474347.3497
 0 0 -0
 0 0 0
 47824.22323 23009.17044 474505.314
 44308.56687 23412.87338 474826.7679
 39545.00692 23644.98584 475235.7082
 34294.11957 23688.8598 475641.2751
 28881.14713 23607.72745 476004.649
 23463.96644 23463.99056 476309.5157
 18114.18781 23305.62847 476550.7268
 12853.75268 23164.61544 476728.4897
 7675.044701 23060.29129 476845.0356
 2551.846251 23004.93002 476902.6448
 -2551.856688 23004.92877 476902.6448
 -7675.055024 23060.28753 476845.0356
 -12853.76282 23164.60931 476728.4898
 -18114.19763 23305.62013 476550.7268
 -23463.97591 23463.98019 476309.5157
 -28881.15612 23607.7154 476004.649
 -34294.12806 23688.84627 475641.2752
 -39545.01484 23644.97125 475235.7083
 -44308.57422 23412.85799 474826.768
 -47824.23009 23009.15466 474505.3141
 0 0 -0
 0 0 0
 48210.02467 18312.62404 474670.7413
 44503.65715 18404.29528 475029.0283
 39572.52027 18437.60824 475463.9224
 34212.11217 18382.24885 475881.8084
 28741.45366 18262.93397 476248.1133
 23305.60605 18114.21258 476550.7269
 17965.63195 17965.65497 476787.5235
 12735.08837 17838.51123 476960.6654
 7599.095355 17746.62507 477073.5607
 2525.759553 17698.56545 477129.1781
 -2525.767971 17698.56411 477129.1781
 -7599.103698 17746.62119 477073.5607
 -12735.09653 17838.50484 476960.6654
 -17965.63989 17965.64628 476787.5236
 -23305.61367 18114.20184 476550.727
 -28741.46092 18262.9214 476248.1133
 -34212.11901 18382.23485 475881.8085
 -39572.52666 18437.59306 475463.9225
 -44503.66308 18404.27934 475029.0283
 -48210.03024 18312.60766 474670.7413
 0 0 -0
 52892.02138 10916.82138 474399.7559
 49346.94779 12675.66846 474737.904
 44784.20668 13083.52458 475178.9847
 39584.89688 13144.0567 475638.6664
 34119.44462 13085.45694 476063.5521
 28607.69844 12977.5782 476429.4841
 23164.59498 12853.77797 476728.4901
 17838.49023 12735.11186 476960.6656
 12635.69066 12635.71207 477129.4891
 7536.21677 12564.79572 477239.1462
 2504.277451 12527.98402 477293.0436
 -2504.283635 12527.98271 477293.0436
 -7536.222886 12564.79167 477239.1462
 -12635.69667 12635.70552 477129.4891
 -17838.49605 12735.10292 476960.6656
 -23164.60058 12853.76688 476728.4901
 -28607.70377 12977.56529 476429.4842
 -34119.44964 13085.44248 476063.5521
 -39584.90155 13144.04111 475638.6665
 -44784.21096 13083.50813 475178.9848
 -49346.95159 12675.65153 474737.904
 -52892.02429 10916.80414 474399.756
 52943.72235 7158.628434 474465.581
 49560.85088 7640.284128 474823.356
 44851.18714 7839.995289 475288.0987
 39552.26387 7871.488528 475757.8474
 34035.72222 7828.716976 476184.9978
 28503.8465 7755.889304 476549.3135
 23060.27299 7675.070343 476845.036
 17746.60633 7599.119171 477073.561
 12564.7766 7536.238489 477239.1463
 7491.676553 7491.695896 477346.4366
 2489.10972 7468.66778 477399.0937
 -2489.113496 7468.666358 477399.0937
 -7491.680297 7491.69184 477346.4366
 -12564.78026 7536.231767 477239.1463
 -17746.60989 7599.110064 477073.5611
 -23060.27641 7675.059053 476845.0361
 -28503.84976 7755.876118 476549.3135
 -34035.72528 7828.702267 476184.9978
 -39552.26671 7871.472596 475757.8475
 -44851.18973 7839.978537 475288.0987
 -49560.85317 7640.266861 474823.3561
 -52943.72432 7158.610949 474465.5811
 52980.33203 2453.133277 474509.1547
 49600.25775 2558.231554 474873.8161
 44850.57397 2613.066164 475345.6313
 39519.92029 2621.218224 475818.428
 33985.50943 2605.483228 476245.8062
 28446.96788 2579.874376 476608.8392
 23004.91406 2551.872078 476902.6454
 17698.54911 2525.783555 477129.1786
 12527.96742 2504.299309 477293.044
 7468.650926 2489.129244 477399.0938
 2481.284415 2481.301342 477451.105
 -2481.285686 2481.299996 477451.105
 -7468.65218 2489.125072 477399.0938
 -12527.96865 2504.292574 477293.044
 -17698.5503 2525.774335 477129.1786
 -23004.91521 2551.860677 476902.6454
 -28446.96897 2579.861081 476608.8392
 -33985.51046 2605.46835 476245.8062
 -39519.92124 2621.202158 475818.428
 -44850.57484 2613.049234 475345.6313
 -49600.25852 2558.214127 474873.8161
 -52980.33271 2453.115638 474509.1547
 52980.33273 -2453.089469 474509.1548
 49600.25854 -2558.187561 474873.8162
 44850.57488 -2613.022102 475345.6315
 39519.92126 -2621.174338 475818.4281
 33985.51049 -2605.439849 476245.8063
 28446.96899 -2579.831874 476608.8393
 23004.91523 -2551.830842 476902.6455
 17698.55031 -2525.743966 477129.1788
 12527.96866 -2504.261731 477293.0441
 7468.652195 -2489.093985 477399.094
 2481.285679 -2481.268678 477451.1052
 -2481.284405 -2481.270108 477451.1052
 -7468.650936 -2489.098084 477399.094
 -12527.96743 -2504.268519 477293.0441
 -17698.54912 -2525.753157 477129.1788
 -23004.91408 -2551.84225 476902.6455
 -28446.9679 -2579.845181 476608.8393
 -33985.50946 -2605.454708 476245.8063
 -39519.9203 -2621.190422 475818.4281
 -44850.57401 -2613.039019 475345.6314
 -49600.25776 -2558.204995 474873.8162
 -52980.33204 -2453.107106 474509.1548
 52943.72436 -7158.584891 474465.5815
 49560.85326 -7640.240397 474823.3565
 44851.18981 -7839.951475 475288.0992
 39552.2668 -7871.4449 475757.8479
 34035.72535 -7828.673853 476184.9983
 28503.84982 -7755.847064 476549.314
 23060.27646 -7675.029351 476845.0365
 17746.60994 -7599.079823 477073.5615
 12564.78029 -7536.20112 477239.1468
 7491.680313 -7491.660846 477346.4371
 2489.113512 -7468.635275 477399.0942
 -2489.109731 -7468.636624 477399.0942
 -7491.676568 -7491.664966 477346.4371
 -12564.77662 -7536.207797 477239.1468
 -17746.60637 -7599.088952 477073.5615
 -23060.27304 -7675.040642 476845.0365
 -28503.84656 -7755.860233 476549.314
 -34035.72229 -7828.688586 476184.9982
 -39552.26396 -7871.460809 475757.8479
 -44851.18722 -7839.968242 475288.0992
 -49560.85096 -7640.257656 474823.3564
 -52943.72239 -7158.602378 474465.5814
 52892.02436 -10916.77827 474399.7565
 49346.95173 -12675.62517 474737.9047
 44784.21111 -13083.48124 475178.9855
 39584.90169 -13144.01357 475638.6672
 34119.44975 -13085.41433 476063.5529
 28607.70388 -12977.53645 476429.4849
 23164.60066 -12853.73748 476728.4909
 17838.49612 -12735.07296 476960.6664
 12635.69672 -12635.67514 477129.4899
 7536.222919 -12564.76103 477239.147
 2504.283644 -12527.95188 477293.0445
 -2504.277458 -12527.95324 477293.0444
 -7536.216792 -12564.76504 477239.147
 -12635.69072 -12635.68172 477129.4899
 -17838.49029 -12735.0819 476960.6664
 -23164.59506 -12853.74855 476728.4908
 -28607.69855 -12977.54938 476429.4849
 -34119.44474 -13085.42875 476063.5528
 -39584.89701 -13144.02919 475638.6672
 -44784.20682 -13083.49767 475178.9854
 -49346.94793 -12675.64211 474737.9047
 -52892.02145 -10916.79552 474399.7565
 0 0 0
 48210.03041 -18312.58132 474670.7423
 44503.66325 -18404.25261 475029.0294
 39572.52682 -18437.56584 475463.9235
 34212.11919 -18382.20697 475881.8096
 28741.46105 -18262.89297 476248.1144
 23305.6138 -18114.17279 476550.7281
 17965.63997 -17965.61676 476787.5247
 12735.09661 -17838.47491 476960.6665
 7599.103737 -17746.59097 477073.5619
 2525.767987 -17698.53377 477129.1793
 -2525.759562 -17698.53508 477129.1792
 -7599.095401 -17746.59487 477073.5618
 -12735.08842 -17838.48129 476960.6665
 -17965.63204 -17965.62544 476787.5247
 -23305.60616 -18114.18356 476550.728
 -28741.45379 -18262.9055 476248.1143
 -34212.11234 -18382.22102 475881.8095
 -39572.52043 -18437.58098 475463.9235
 -44503.65731 -18404.26858 475029.0293
 -48210.02484 -18312.59769 474670.7423
 0 0 -0
 0 0 0
 47824.2302 -23009.12858 474505.3154
 44308.57437 -23412.83161 474826.7693
 39545.01504 -23644.94435 475235.7096
 34294.12823 -23688.81888 475641.2765
 28881.15633 -23607.68737 476004.6504
 23463.97603 -23463.9517 476309.5171
 18114.19777 -23305.59111 476550.7282
 12853.76289 -23164.57995 476728.4912
 7675.055085 -23060.2579 476845.037
 2551.856706 -23004.899 476902.6462
 -2551.846271 -23004.90025 476902.6462
 -7675.044742 -23060.26165 476845.037
 -12853.75277 -23164.58607 476728.4912
 -18114.18792 -23305.59948 476550.7282
 -23463.96658 -23463.96202 476309.5171
 -28881.14731 -23607.69947 476004.6503
 -34294.11976 -23688.83235 475641.2765
 -39545.00712 -23644.95898 475235.7095
 -44308.56703 -23412.84697 474826.7692
 -47824.22333 -23009.14437 474505.3153
 0 0 -0
 0 0 0
 47562.23009 -26538.57707 474347.3511
 43967.11611 -27999.6362 474610.1393
 39388.59625 -28694.58252 474970.5577
 34295.92905 -28957.13763 475349.4975
 28979.55899 -28979.53405 475701.8426
 23607.71316 -28881.13267 476004.6506
 18262.91935 -28741.43906 476248.1147
 12977.56337 -28607.68373 476429.4854
 7755.87428 -28503.83175 476549.3146
 2579.859241 -28446.95313 476608.8401
 -2579.847055 -28446.95434 476608.8401
 -7755.862228 -28503.83531 476549.3146
 -12977.55152 -28607.68958 476429.4854
 -18262.90788 -28741.447 476248.1147
 -23607.7021 -28881.14255 476004.6505
 -28979.54849 -28979.54552 475701.8426
 -34295.91913 -28957.15053 475349.4974
 -39388.58702 -28694.59645 474970.5577
 -43967.10761 -27999.65096 474610.1393
 -47562.2224 -26538.59235 474347.351
 0 0 -0
 0 0 0
 0 0 0
 42811.83551 -32092.50946 474456.6249
 38841.21186 -33465.78953 474703.3521
 34085.14224 -34085.11712 475024.5038
 28957.1637 -34295.90493 475349.4976
 23688.84569 -34294.10546 475641.2768
 18382.23452 -34212.09792 475881.81
 13085.44235 -34119.43028 476063.5535
 7828.70224 -34035.70782 476184.999
 2605.468373 -33985.49507 476245.8073
 -2605.454755 -33985.49619 476245.8073
 -7828.68874 -34035.71119 476184.999
 -13085.42914 -34119.43577 476063.5535
 -18382.22165 -34212.10544 475881.81
 -23688.83335 -34294.11473 475641.2768
 -28957.15191 -34295.91581 475349.4975
 -34085.13114 -34085.12925 475024.5037
 -38841.20151 -33465.80275 474703.352
 -42811.82602 -32092.52349 474456.6248
 0 0 -0
 0 0 -0
 0 0 0
 0 0 0
 0 0 0
 37550.91932 -37550.89431 474501.5596
 33465.81549 -38841.18769 474703.3522
 28694.60932 -39388.57313 474970.558
 23644.97199 -39544.99313 475235.7101
 18437.59413 -39572.50639 475463.9241
 13144.04242 -39584.88292 475638.668
 7871.474079 -39552.24988 475757.8488
 2621.203674 -39519.9063 475818.4292
 -2621.188932 -39519.90735 475818.4292
 -7871.459497 -39552.253 475757.8488
 -13144.0281 -39584.88806 475638.668
 -18437.58025 -39572.51338 475463.9241
 -23644.9586 -39545.00184 475235.71
 -28694.59656 -39388.58323 474970.558
 -33465.8034 -38841.19904 474703.3522
 -37550.90804 -37550.90665 474501.5595
 0 0 -0
 0 0 -0
 0 0 -0
 0 0 0
 0 0 0
 0 0 0
 0 0 0
 32092.53602 -42811.81242 474456.6251
 27999.66353 -43967.094 474610.1398
 23412.85969 -44308.55338 474826.7699
 18404.28142 -44503.64361 475029.0301
 13083.51056 -44784.1931 475178.9864
 7839.981141 -44851.17353 475288.1002
 2613.051922 -44850.56038 475345.6327
 -2613.0364 -44850.56134 475345.6327
 -7839.965761 -44851.17638 475288.1002
 -13083.4955 -44784.1978 475178.9864
 -18404.26679 -44503.65014 475029.03
 -23412.84562 -44308.56144 474826.7698
 -27999.65003 -43967.10333 474610.1397
 -32092.52317 -42811.82282 474456.6251
 0 0 -0
 0 0 -0
 0 0 -0
 0 0 -0
 0 0 0
 0 0 0
 0 0 0
 0 0 0
 0 0 0
 26538.60468 -47562.20906 474347.3517
 23009.15687 -47824.20996 474505.316
 18312.61033 -48210.01142 474670.7431
 12675.65469 -49346.93453 474737.9057
 7640.270245 -49560.83761 474823.3576
 2558.217573 -49600.2445 474873.8175
 -2558.201574 -49600.24535 474873.8175
 -7640.254408 -49560.84014 474823.3576
 -12675.63915 -49346.93871 474737.9057
 -18312.59532 -48210.01754 474670.7431
 -23009.14241 -47824.21752 474505.316
 -26538.5907 -47562.2175 474347.3516
 0 0 -0
 0 0 -0
 0 0 -0
 0 0 -0
 0 0 -0
 0 0 0
 0 0 0
 0 0 0
 0 0 0
 0 0 0
 0 0 0
 0 0 0
 0 0 0
 10916.8078 -52892.00831 474399.7577
 7158.614725 -52943.70931 474465.5827
 2453.119483 -52980.31904 474509.1562
 -2453.103291 -52980.31979 474509.1562
 -7158.598672 -52943.71148 474465.5827
 -10916.79197 -52892.0115 474399.7577
 0 0 -0
 0 0 -0
 0 0 -0
 0 0 -0
 0 0 -0
 0 0 -0
 0 0 -0
 0 0 -0
 0 0 0
 0 0 0
 0 0 0
 0 0 0
 0 0 0
 0 0 0
 0 0 0
 0 0 0
 9088.843501 45364.0851 475217.1756
 6109.479341 45416.41435 475259.8183
 2116.128014 45458.8578 475290.3171
 -2116.144126 45458.85706 475290.3171
 -6109.495316 45416.41218 475259.8183
 -9088.859249 45364.08193 475217.1756
 0 0 -0
 0 0 -0
 0 0 -0
 0 0 -0
 0 0 -0
 0 0 -0
 0 0 -0
 0 0 -0
 0 0 0
 0 0 0
 0 0 0
 0 0 0
 0 0 0
 22757.57441 40710.07476 475180.654
 19981.52166 40992.38305 475281.2164
 15875.21473 41520.6084 475390.248
 10891.23955 42780.52906 475418.8454
 6612.159024 43121.80721 475466.7816
 2225.322564 43206.1777 475499.8901
 -2225.338475 43206.17682 475499.8901
 -6612.174763 43121.80473 475466.7816
 -10891.25502 42780.52487 475418.8454
 -15875.22966 41520.60233 475390.2481
 -19981.53606 40992.37552 475281.2164
 -22757.58831 40710.06637 475180.654
 0 0 -0
 0 0 -0
 0 0 -0
 0 0 -0
 0 0 -0
 0 0 0
 0 0 0
 0 0 0
 0 0 0
 27423.07126 36800.95669 475253.1284
 24191.79851 38041.58829 475330.9013
 20443.97816 38538.29981 475466.8385
 16123.25094 38872.48401 475605.7633
 11458.01873 39280.415 475707.509
 6879.378238 39445.46988 475782.0934
 2296.805646 39488.37319 475822.7237
 -2296.821073 39488.37228 475822.7237
 -6879.393541 39445.46699 475782.0934
 -11458.03368 39280.41038 475707.509
 -16123.26551 38872.47748 475605.7633
 -20443.99212 38538.29183 475466.8385
 -24191.81194 38041.57899 475330.9014
 -27423.08404 36800.94635 475253.1285
 0 0 -0
 0 0 -0
 0 0 -0
 0 0 -0
 0 0 0
 0 0 0
 0 0 0
 32207.42419 32207.44877 475286.4751
 28940.50791 33657.89415 475396.1132
 25058.98028 34430.13106 475561.2315
 20796.54945 34749.65514 475743.4564
 16274.94563 34892.69269 475909.1273
 11619.0685 34993.30033 476038.1681
 6965.606648 35023.27247 476126.7919
 2321.110952 35021.63604 476172.2049
 -2321.125613 35021.63495 476172.2049
 -6965.62113 35023.26942 476126.792
 -11619.08277 34993.29518 476038.1681
 -16274.95939 34892.68579 475909.1273
 -20796.56279 34749.64644 475743.4564
 -25058.99293 34430.12106 475561.2315
 -28940.51994 33657.88283 475396.1133
 -32207.43542 32207.43649 475286.4751
 0 0 -0
 0 0 -0
 0 0 -0
 0 0 0
 0 0 0
 36800.93407 27423.09741 475253.1286
 33657.87044 28940.53343 475396.1133
 29800.80978 29800.83444 475600.3504
 25493.29999 30200.47175 475825.4874
 20953.91545 30328.21939 476038.868
 16305.42096 30335.13094 476220.3108
 11624.33919 30305.40566 476359.453
 6960.364697 30263.82695 476453.0674
 2317.413752 30234.68195 476500.1206
 -2317.427287 30234.68087 476500.1206
 -6960.378138 30263.82357 476453.0674
 -11624.35229 30305.40025 476359.453
 -16305.43379 30335.12341 476220.3108
 -20953.92768 30328.21023 476038.868
 -25493.31173 30200.46089 475825.4875
 -29800.8208 29800.82242 475600.3505
 -33657.88075 28940.52026 475396.1134
 -36800.94351 27423.08345 475253.1287
 0 0 -0
 0 0 -0
 0 0 0
 40710.05422 22757.60162 475180.6544
 38041.56667 24191.82543 475330.9017
 34430.10845 25059.00663 475561.2317
 30200.44811 25493.32561 475825.4875
 25647.42866 25647.45316 476084.3296
 20962.35776 25643.04541 476313.8514
 16249.83161 25569.67858 476501.8424
 11560.98693 25482.40402 476643.3278
 6913.908801 25408.90472 476737.3037
 2300.48939 25367.13621 476784.1099
 -2300.501514 25367.13501 476784.1099
 -6913.920768 25408.90119 476737.3037
 -11560.99874 25482.39818 476643.3279
 -16249.84298 25569.67073 476501.8424
 -20962.36879 25643.03553 476313.8515
 -25647.43908 25647.44181 476084.3296
 -30200.45798 25493.31274 475825.4876
 -34430.11761 25058.99282 475561.2318
 -38041.57511 24191.81074 475330.9017
 -40710.06185 22757.58644 475180.6545
 0 0 -0
 0 0 0
 40992.3633 19981.54959 475281.2169
 38538.27934 20444.00582 475466.839
 34749.63372 20796.57669 475743.4568
 30328.1971 20953.94184 476038.8682
 25643.02222 20962.38312 476313.8516
 20885.52762 20885.55155 476549.5355
 16148.88834 20776.10085 476738.3332
 11470.02951 20669.79877 476878.4637
 6852.481556 20588.06043 476970.6978
 2278.907782 20543.90534 477016.379
 -2278.918153 20543.90405 477016.379
 -6852.49186 20588.05673 476970.6978
 -11470.03956 20669.79268 476878.4637
 -16148.89816 20776.09251 476738.3332
 -20885.53699 20885.54133 476549.5355
 -25643.0312 20962.37104 476313.8516
 -30328.20551 20953.9285 476038.8683
 -34749.6416 20796.56212 475743.4568
 -38538.28664 20443.99058 475466.839
 -40992.37012 19981.53388 475281.217
 0 0 -0
 0 0 0
 41520.58992 15875.24341 475390.2487
 38872.46487 16123.2794 475605.7639
 34892.67277 16274.97353 475909.1278
 30335.11016 16305.44814 476220.3111
 25569.65704 16249.85762 476501.8427
 20776.0786 16148.91294 476738.3333
 16035.87862 16035.90148 476925.1218
 11375.86374 15934.28412 477062.4274
 6790.998549 15859.06086 477152.2229
 2257.614272 15819.26506 477196.5269
 -2257.622657 15819.26383 477196.5269
 -6791.006825 15859.05692 477152.2229
 -11375.8719 15934.2778 477062.4274
 -16035.88649 16035.89286 476925.1218
 -20776.08621 16148.90219 476738.3334
 -25569.66424 16249.84521 476501.8427
 -30335.11697 16305.43413 476220.3112
 -34892.67913 16274.95851 475909.1278
 -38872.47076 16123.26351 475605.7639
 -41520.59546 15875.22713 475390.2488
 0 0 -0
 45364.06954 9088.872754 475217.1765
 42780.51234 10891.26878 475418.8462
 39280.39752 11458.0477 475707.5097
 34993.28206 11619.09704 476038.1687
 30305.38668 11624.36686 476359.4535
 25482.38433 11561.01352 476643.3282
 20669.77845 11470.05461 476878.464
 15934.26329 11375.88705 477062.4275
 11294.15785 11294.17913 477196.7674
 6738.585734 11234.843 477284.2351
 2239.601736 11203.77859 477327.2785
 -2239.607882 11203.77714 477327.2785
 -6738.591839 11234.8391 477284.2351
 -11294.1638 11294.17255 477196.7674
 -15934.2691 11375.87817 477062.4275
 -20669.78401 11470.04363 476878.464
 -25482.38963 11561.00063 476643.3283
 -30305.39167 11624.35256 476359.4535
 -34993.28669 11619.08148 476038.1688
 -39280.40179 11458.0314 475707.5098
 -42780.51612 10891.25193 475418.8462
 -45364.07242 9088.8556 475217.1766
 45416.39978 6109.508925 475259.8193
 43121.79208 6612.188584 475466.7825
 39445.45407 6879.407636 475782.0942
 35023.25608 6965.635515 476126.7927
 30263.80989 6960.392815 476453.068
 25408.88709 6913.935732 476737.3042
 20588.04229 6852.507013 476970.6982
 15859.04223 6791.022212 477152.2232
 11234.82408 6738.607258 477284.2352
 6700.904782 6700.924048 477369.9475
 2226.710097 6681.303207 477412.0581
 -2226.71386 6681.301965 477412.0581
 -6700.908494 6700.919867 477369.9475
 -11234.82774 6738.60067 477284.2352
 -15859.04576 6791.013115 477152.2232
 -20588.0457 6852.495775 476970.6982
 -25408.89033 6913.922668 476737.3042
 -30263.81293 6960.378138 476453.0681
 -35023.25891 6965.61973 476126.7927
 -39445.45663 6879.390954 475782.0943
 -43121.79437 6612.171438 475466.7826
 -45416.40173 6109.491529 475259.8193
 45458.8446 2116.157807 475290.3182
 43206.16413 2225.352348 475499.8912
 39488.35923 2296.835197 475822.7247
 35021.62154 2321.14007 476172.2059
 30234.66702 2317.44202 476500.1214
 25367.12078 2300.516538 476784.1106
 20543.88949 2278.933435 477016.3796
 15819.24889 2257.638076 477196.5274
 11203.76205 2239.623483 477327.2788
 6681.286568 2226.729406 477412.0583
 2220.014556 2220.031449 477453.6776
 -2220.015816 2220.029934 477453.6776
 -6681.287827 2226.725408 477412.0583
 -11203.76327 2239.616676 477327.2788
 -15819.25009 2257.628963 477196.5274
 -20543.89062 2278.92209 477016.3796
 -25367.12188 2300.503292 476784.1106
 -30234.66804 2317.427274 476500.1214
 -35021.62248 2321.124063 476172.2059
 -39488.3601 2296.818401 475822.7247
 -43206.1649 2225.335011 475499.8912
 -45458.84528 2116.140266 475290.3183
 45458.84528 -2116.114314 475290.3184
 43206.16494 -2225.30871 475499.8913
 39488.3601 -2296.79149 475822.7248
 35021.62253 -2321.09654 476172.206
 30234.66805 -2317.398981 476500.1215
 25367.12191 -2300.47437 476784.1107
 20543.89064 -2278.892506 477016.3797
 15819.25011 -2257.598794 477196.5275
 11203.76328 -2239.586177 477327.279
 6681.287826 -2226.694429 477412.0584
 2220.015837 -2219.999024 477453.6778
 -2220.014572 -2220.000291 477453.6778
 -6681.286566 -2226.698643 477412.0584
 -11203.76205 -2239.592826 477327.279
 -15819.24891 -2257.607995 477196.5275
 -20543.8895 -2278.903833 477016.3797
 -25367.12081 -2300.487583 476784.1107
 -30234.66703 -2317.413786 476500.1215
 -35021.62158 -2321.112488 476172.206
 -39488.35923 -2296.80833 475822.7248
 -43206.16417 -2225.326023 475499.8913
 -45458.8446 -2116.131862 475290.3184
 45416.40176 -6109.465702 475259.8197
 43121.79442 -6612.145193 475466.7829
 39445.45674 -6879.364184 475782.0946
 35023.25897 -6965.592231 476126.7931
 30263.81301 -6960.350042 476453.0685
 25408.89039 -6913.893802 476737.3047
 20588.04575 -6852.466357 476970.6987
 15859.04579 -6790.983136 477152.2236
 11234.82777 -6738.570203 477284.2357
 6700.908516 -6700.889227 477369.9479
 2226.713857 -6681.27099 477412.0586
 -2226.710093 -6681.272448 477412.0586
 -6700.904791 -6700.89322 477369.9479
 -11234.82412 -6738.576924 477284.2357
 -15859.04225 -6790.992168 477152.2236
 -20588.04234 -6852.477594 476970.6986
 -25408.88715 -6913.906914 476737.3046
 -30263.80996 -6960.364649 476453.0684
 -35023.25614 -6965.608084 476126.7931
 -39445.45416 -6879.380816 475782.0946
 -43121.79213 -6612.162366 475466.7829
 -45416.39981 -6109.48309 475259.8196
 45364.07246 -9088.829947 475217.1771
 42780.51626 -10891.22583 475418.8468
 39280.40191 -11458.0047 475707.5104
 34993.28682 -11619.05426 476038.1694
 30305.39179 -11624.32458 476359.4542
 25482.38971 -11560.97212 476643.329
 20669.78411 -11470.0144 476878.4647
 15934.26916 -11375.8485 477062.4282
 11294.16385 -11294.14244 477196.7681
 6738.591866 -11234.80864 477284.2358
 2239.607897 -11203.74665 477327.2792
 -2239.60174 -11203.74794 477327.2792
 -6738.585777 -11234.81267 477284.2358
 -11294.15787 -11294.14894 477196.7681
 -15934.26337 -11375.8574 477062.4282
 -20669.77852 -11470.02542 476878.4647
 -25482.38441 -11560.98494 476643.3289
 -30305.3868 -11624.33897 476359.4542
 -34993.28217 -11619.06974 476038.1694
 -39280.39765 -11458.02107 475707.5104
 -42780.51248 -10891.24265 475418.8468
 -45364.06957 -9088.847108 475217.177
 0 0 0
 41520.5956 -15875.20098 475390.2496
 38872.47091 -16123.23706 475605.7648
 34892.67929 -16274.93145 475909.1288
 30335.11708 -16305.40661 476220.3121
 25569.66442 -16249.81691 476501.8437
 20776.08627 -16148.87349 476738.3343
 16035.88661 -16035.86352 476925.1228
 11375.87194 -15934.24813 477062.4284
 6791.006874 -15859.02697 477152.2239
 2257.622668 -15819.23369 477196.5279
 -2257.614292 -15819.235 477196.5279
 -6790.99856 -15859.03084 477152.2239
 -11375.86383 -15934.25448 477062.4284
 -16035.87869 -16035.87217 476925.1227
 -20776.0787 -16148.88415 476738.3343
 -25569.65718 -16249.82944 476501.8436
 -30335.11029 -16305.42049 476220.3121
 -34892.67293 -16274.94658 475909.1287
 -38872.46501 -16123.25289 475605.7648
 -41520.59006 -15875.21729 475390.2496
 0 0 -0
 0 0 0
 40992.37018 -19981.50802 475281.218
 38538.28678 -20443.96437 475466.8401
 34749.64174 -20796.53554 475743.458
 30328.20574 -20953.90122 476038.8695
 25643.03129 -20962.34338 476313.8528
 20885.5372 -20885.51295 476549.5368
 16148.8982 -20776.06383 476738.3345
 11470.03968 -20669.7635 476878.465
 6852.491884 -20588.02735 476970.6991
 2278.918177 -20543.87453 477016.3803
 -2278.907785 -20543.8758 477016.3803
 -6852.481627 -20588.03106 476970.6991
 -11470.02956 -20669.76963 476878.465
 -16148.88846 -20776.0721 476738.3344
 -20885.52775 -20885.52329 476549.5367
 -25643.02237 -20962.35532 476313.8528
 -30328.19728 -20953.91471 476038.8694
 -34749.63388 -20796.54999 475743.4579
 -38538.27947 -20443.9797 475466.8401
 -40992.36336 -19981.5237 475281.218
 0 0 -0
 0 0 0
 40710.06185 -22757.5609 475180.6557
 38041.57524 -24191.78496 475330.903
 34430.11784 -25058.96652 475561.2332
 30200.45813 -25493.2861 475825.489
 25647.43935 -25647.41449 476084.3311
 20962.36885 -25643.00792 476313.853
 16249.84319 -25569.64252 476501.8439
 11560.99877 -25482.36977 476643.3294
 6913.920857 -25408.87243 476737.3052
 2300.50153 -25367.10619 476784.1114
 -2300.489424 -25367.10735 476784.1114
 -6913.908827 -25408.87601 476737.3052
 -11560.98706 -25482.37553 476643.3293
 -16249.83172 -25569.65049 476501.8439
 -20962.35793 -25643.01765 476313.8529
 -25647.42885 -25647.42601 476084.331
 -30200.44832 -25493.29882 475825.4889
 -34430.10864 -25058.98045 475561.2331
 -38041.56681 -24191.79958 475330.903
 -40710.05421 -22757.5761 475180.6557
 0 0 -0
 0 0 0
 0 0 0
 36800.94369 -27423.05783 475253.1302
 33657.88096 -28940.49442 475396.115
 29800.82109 -29800.79609 475600.3521
 25493.31186 -30200.43429 475825.4891
 20953.92793 -30328.18307 476038.8697
 16305.43384 -30335.09604 476220.3125
 11624.35246 -30305.37243 476359.4547
 6960.378179 -30263.79565 476453.0692
 2317.427306 -30234.65275 476500.1224
 -2317.413746 -30234.6539 476500.1223
 -6960.364799 -30263.79895 476453.0691
 -11624.33925 -30305.37795 476359.4547
 -16305.42113 -30335.10344 476220.3125
 -20953.91559 -30328.19238 476038.8697
 -25493.30021 -30200.445 475825.4891
 -29800.81001 -29800.80824 475600.352
 -33657.87069 -28940.50751 475396.1149
 -36800.93424 -27423.07181 475253.1301
 0 0 -0
 0 0 -0
 0 0 0
 0 0 0
 0 0 0
 32207.43567 -32207.4108 475286.4768
 28940.52015 -33657.857 475396.1151
 25058.99318 -34430.09486 475561.2334
 20796.56288 -34749.62004 475743.4584
 16274.95959 -34892.65899 475909.1293
 11619.08284 -34993.26822 476038.1701
 6965.621218 -35023.24218 476126.794
 2321.125653 -35021.60769 476172.2069
 -2321.111009 -35021.60872 476172.2069
 -6965.606675 -35023.2453 476126.7939
 -11619.06866 -34993.27328 476038.1701
 -16274.94573 -34892.666 475909.1292
 -20796.54964 -34749.62862 475743.4583
 -25058.98045 -34430.10498 475561.2334
 -28940.50816 -33657.86823 475396.115
 -32207.42442 -32207.42312 475286.4768
 0 0 -0
 0 0 -0
 0 0 -0
 0 0 0
 0 0 0
 0 0 0
 0 0 0
 27423.08421 -36800.92074 475253.1304