# OOMMF OVF 2.0
#
# Segment count: 1
#
# Begin: Segment
# Begin: Header
#
# Title: Oxs_MinDriver::Magnetization
# Desc: Oxs vector field output
# Desc:  MIF source file: F:/Bogdan/UNIC/2022/Master_degree/Samples/Cylinder0_5000 1.mif
# Desc:  Iteration: 1009, State id: 4493
# Desc:  Stage: 6, Stage iteration: 44
# Desc:  Stage simulation time: 0 s
# Desc:  Total simulation time: -2 s
# meshunit: m
# meshtype: rectangular
# xbase: -8.9999999999999995e-09
# ybase: -8.9999999999999995e-09
# zbase: -2.0999999999999999e-08
# xnodes: 10
# ynodes: 10
# znodes: 22
# xstepsize: 2.0000000000000001e-09
# ystepsize: 2.0000000000000001e-09
# zstepsize: 2.0000000000000001e-09
# xmin: -1e-08
# ymin: -1e-08
# zmin: -2.1999999999999998e-08
# xmax: 1e-08
# ymax: 1e-08
# zmax: 2.2000000000000005e-08
# valuedim: 3
# valuelabels: Magnetization_x Magnetization_y Magnetization_z
# valueunits: A/m A/m A/m
#
# End: Header
#
# Begin: Data Text
 0 0 0
 0 0 0
 0 0 0
 7716.112759 28870.18935 476527.9059
 2898.45395 29067.3707 476569.5733
 -2898.453942 29067.3707 476569.5733
 -7716.112751 28870.18935 476527.9059
 0 0 -0
 0 0 -0
 0 0 -0
 0 0 0
 21456.08558 21456.08552 476498.8395
 17022.66489 22349.65083 476636.7519
 10085.55097 24209.77156 476743.1593
 3407.378953 24697.49593 476812.6411
 -3407.378945 24697.49593 476812.6411
 -10085.55096 24209.77156 476743.1593
 -17022.66488 22349.65082 476636.7519
 -21456.08558 21456.08552 476498.8395
 0 0 -0
 0 0 0
 22349.6509 17022.66482 476636.7519
 17535.31897 17535.31891 476819.5639
 10852.90237 18241.10878 476991.9787
 3667.057237 18545.46196 477089.6036
 -3667.057229 18545.46196 477089.6036
 -10852.90237 18241.10877 476991.9787
 -17535.31897 17535.31891 476819.5639
 -22349.65089 17022.66481 476636.7519
 0 0 -0
 28870.18942 7716.112687 476527.9059
 24209.77163 10085.5509 476743.1593
 18241.10886 10852.90229 476991.9787
 11262.19125 11262.19119 477198.2789
 3802.44647 11439.93308 477311.7856
 -3802.446462 11439.93308 477311.7856
 -11262.19124 11262.1912 477198.2789
 -18241.10885 10852.90229 476991.9787
 -24209.77162 10085.55091 476743.1593
 -28870.18941 7716.112687 476527.9059
 29067.37077 2898.453882 476569.5733
 24697.49601 3407.378875 476812.6411
 18545.46201 3667.057178 477089.6036
 11439.93317 3802.44638 477311.7856
 3861.264798 3861.264746 477432.7728
 -3861.26479 3861.264756 477432.7728
 -11439.93317 3802.446371 477311.7856
 -18545.46201 3667.057186 477089.6036
 -24697.49601 3407.37887 476812.6411
 -29067.37076 2898.453884 476569.5733
 29067.37077 -2898.454015 476569.5733
 24697.49599 -3407.379009 476812.6411
 18545.46205 -3667.057313 477089.6036
 11439.93313 -3802.446517 477311.7856
 3861.264848 -3861.264881 477432.7728
 -3861.26484 -3861.264894 477432.7728
 -11439.93312 -3802.446506 477311.7856
 -18545.46204 -3667.057321 477089.6036
 -24697.49599 -3407.379004 476812.6411
 -29067.37076 -2898.454017 476569.5733
 28870.18942 -7716.11282 476527.9059
 24209.77164 -10085.55104 476743.1593
 18241.10883 -10852.90243 476991.9787
 11262.19129 -11262.19133 477198.2789
 3802.446425 -11439.93322 477311.7856
 -3802.446417 -11439.93321 477311.7856
 -11262.19128 -11262.19134 477198.2789
 -18241.10882 -10852.90242 476991.9787
 -24209.77163 -10085.55104 476743.1593
 -28870.18941 -7716.112818 476527.9059
 0 0 0
 22349.65089 -17022.66495 476636.7519
 17535.31899 -17535.31904 476819.5638
 10852.90234 -18241.10891 476991.9787
 3667.057271 -18545.46209 477089.6036
 -3667.057263 -18545.4621 477089.6036
 -10852.90234 -18241.10891 476991.9787
 -17535.31899 -17535.31905 476819.5638
 -22349.65088 -17022.66495 476636.7519
 0 0 -0
 0 0 0
 21456.08559 -21456.08565 476498.8395
 17022.66488 -22349.65096 476636.7519
 10085.55098 -24209.77169 476743.1593
 3407.378933 -24697.49607 476812.6411
 -3407.378925 -24697.49606 476812.6411
 -10085.55098 -24209.7717 476743.1593
 -17022.66487 -22349.65096 476636.7519
 -21456.08558 -21456.08565 476498.8395
 0 0 -0
 0 0 0
 0 0 0
 0 0 0
 7716.112755 -28870.18948 476527.9059
 2898.453957 -29067.37083 476569.5733
 -2898.453949 -29067.37083 476569.5733
 -7716.112747 -28870.18948 476527.9059
 0 0 -0
 0 0 -0
 0 0 -0
 0 0 0
 0 0 0
 0 0 0
 6407.63431 24787.71148 476777.0788
 2464.951834 24972.02474 476804.1456
 -2464.951826 24972.02474 476804.1456
 -6407.634302 24787.71148 476777.0788
 0 0 -0
 0 0 -0
 0 0 -0
 0 0 0
 18385.98357 18385.9835 476755.4746
 14798.81834 19231.91522 476846.9353
 8746.380821 21125.33983 476916.2318
 2974.871192 21697.08938 476961.4846
 -2974.871184 21697.08938 476961.4846
 -8746.380814 21125.33982 476916.2318
 -14798.81833 19231.91522 476846.9353
 -18385.98357 18385.9835 476755.4746
 0 0 -0
 0 0 0
 19231.91528 14798.81828 476846.9353
 15403.86175 15403.86166 476966.7844
 9622.351122 16191.90765 477092.343
 3266.554856 16554.8553 477165.734
 -3266.554848 16554.85529 477165.734
 -9622.351113 16191.90766 477092.343
 -15403.86175 15403.86165 476966.7844
 -19231.91527 14798.81828 476846.9353
 0 0 -0
 24787.71154 6407.634246 476777.0788
 21125.33991 8746.380734 476916.2318
 16191.90769 9622.351086 477092.343
 10096.1496 10096.14948 477250.4655
 3423.790211 10306.27243 477340.4757
 -3423.790202 10306.27245 477340.4757
 -10096.14959 10096.14947 477250.4655
 -16191.90768 9622.351098 477092.343
 -21125.33991 8746.380727 476916.2318
 -24787.71153 6407.634248 476777.0788
 24972.02481 2464.951759 476804.1456
 21697.08942 2974.871146 476961.4846
 16554.85542 3266.554749 477165.734
 10306.27245 3423.79019 477340.4757
 3492.996994 3492.996867 477438.4455
 -3492.996987 3492.996841 477438.4455
 -10306.27244 3423.790213 477340.4757
 -16554.85541 3266.554731 477165.734
 -21697.08941 2974.871156 476961.4846
 -24972.02481 2464.951755 476804.1456
 24972.0248 -2464.951888 476804.1456
 21697.08948 -2974.871275 476961.4846
 16554.85532 -3266.554882 477165.734
 10306.27257 -3423.79032 477340.4757
 3492.996854 -3492.997003 477438.4455
 -3492.996845 -3492.996971 477438.4455
 -10306.27257 -3423.790348 477340.4757
 -16554.85531 -3266.554861 477165.734
 -21697.08947 -2974.871288 476961.4846
 -24972.02479 -2464.951884 476804.1456
 24787.71155 -6407.634374 476777.0788
 21125.33987 -8746.380867 476916.2318
 16191.90777 -9622.351212 477092.343
 10096.14949 -10096.14962 477250.4655
 3423.790335 -10306.27256 477340.4757
 -3423.790328 -10306.27259 477340.4757
 -10096.14948 -10096.14959 477250.4655
 -16191.90776 -9622.351234 477092.343
 -21125.33986 -8746.380854 476916.2318
 -24787.71154 -6407.634377 476777.0788
 0 0 0
 19231.9153 -14798.81841 476846.9353
 15403.8617 -15403.8618 476966.7844
 9622.351203 -16191.90778 477092.343
 3266.554761 -16554.85545 477165.734
 -3266.554753 -16554.85542 477165.734
 -9622.351196 -16191.9078 477092.343
 -15403.86169 -15403.86178 476966.7844
 -19231.9153 -14798.81841 476846.9353
 0 0 -0
 0 0 0
 18385.98357 -18385.98363 476755.4745
 14798.81836 -19231.91535 476846.9353
 8746.380776 -21125.33996 476916.2318
 2974.87125 -21697.0895 476961.4846
 -2974.871242 -21697.08952 476961.4845
 -8746.380768 -21125.33995 476916.2318
 -14798.81835 -19231.91536 476846.9353
 -18385.98356 -18385.98363 476755.4745
 0 0 -0
 0 0 0
 0 0 0
 0 0 0
 6407.634321 -24787.7116 476777.0788
 2464.951816 -24972.02487 476804.1456
 -2464.951808 -24972.02486 476804.1456
 -6407.634314 -24787.71161 476777.0788
 0 0 -0
 0 0 -0
 0 0 -0
 0 0 0
 0 0 0
 0 0 0
 5059.900401 19962.14752 477019.6866
 1959.467653 20118.34815 477035.9356
 -1959.467646 20118.34815 477035.9356
 -5059.900394 19962.14752 477019.6866
 0 0 -0
 0 0 -0
 0 0 -0
 0 0 0
 14800.15005 14800.15 477005.013
 11982.57548 15517.95909 477061.2981
 7072.003418 17153.20963 477103.3698
 2411.097741 17689.232 477130.1174
 -2411.097734 17689.232 477130.1174
 -7072.00341 17153.20963 477103.3698
 -11982.57548 15517.95909 477061.2981
 -14800.15005 14800.15 477005.013
 0 0 -0
 0 0 0
 15517.95917 11982.5754 477061.2981
 12559.73819 12559.73816 477133.5004
 7901.783521 13311.67629 477212.9843
 2693.074251 13677.65549 477260.4534
 -2693.074243 13677.65549 477260.4534
 -7901.783516 13311.67628 477212.9843
 -12559.73818 12559.73816 477133.5004
 -15517.95916 11982.5754 477061.2981
 0 0 -0
 19962.14759 5059.900329 477019.6866
 17153.20967 7072.00338 477103.3698
 13311.67641 7901.783405 477212.9843
 8377.292308 8377.29231 477316.9945
 2854.161709 8596.719382 477378.0697
 -2854.161703 8596.719367 477378.0697
 -8377.292297 8377.292324 477316.9945
 -13311.6764 7901.783394 477212.9843
 -17153.20966 7072.003387 477103.3698
 -19962.14759 5059.900327 477019.6866
 20118.3482 1959.467599 477035.9356
 17689.23211 2411.097641 477130.1174
 13677.65549 2693.074241 477260.4534
 8596.719528 2854.161567 477378.0697
 2927.501441 2927.50146 477446.0501
 -2927.501432 2927.501487 477446.0501
 -8596.719525 2854.161543 477378.0697
 -13677.65548 2693.07426 477260.4534
 -17689.2321 2411.09763 477130.1174
 -20118.34819 1959.467603 477035.9356
 20118.34823 -1959.467722 477035.9356
 17689.23203 -2411.097767 477130.1174
 13677.65562 -2693.074363 477260.4534
 8596.719353 -2854.161698 477378.0697
 2927.501642 -2927.501581 477446.0501
 -2927.501636 -2927.501619 477446.0501
 -8596.719341 -2854.161664 477378.0697
 -13677.65562 -2693.074388 477260.4534
 -17689.23202 -2411.097752 477130.1174
 -20118.34822 -1959.467727 477035.9356
 19962.14758 -5059.900453 477019.6866
 17153.20973 -7072.0035 477103.3698
 13311.6763 -7901.783538 477212.9843
 8377.292462 -8377.292424 477316.9945
 2854.161531 -8596.719522 477378.0697
 -2854.161522 -8596.719479 477378.0697
 -8377.292458 -8377.29246 477316.9945
 -13311.67628 -7901.783511 477212.9843
 -17153.20972 -7072.003515 477103.3698
 -19962.14757 -5059.90045 477019.6866
 0 0 0
 15517.95914 -11982.57553 477061.2981
 12559.73826 -12559.73827 477133.5004
 7901.783407 -13311.67643 477212.9843
 2693.074387 -13677.6556 477260.4534
 -2693.07438 -13677.65564 477260.4534
 -7901.783397 -13311.6764 477212.9843
 -12559.73826 -12559.73829 477133.5004
 -15517.95913 -11982.57552 477061.2981
 0 0 -0
 0 0 0
 14800.15007 -14800.15012 477005.013
 11982.57545 -15517.95922 477061.2981
 7072.003483 -17153.20975 477103.3698
 2411.097659 -17689.23214 477130.1174
 -2411.097651 -17689.23211 477130.1174
 -7072.003477 -17153.20976 477103.3698
 -11982.57544 -15517.95921 477061.2981
 -14800.15006 -14800.15012 477005.013
 0 0 -0
 0 0 0
 0 0 0
 0 0 0
 5059.900386 -19962.14765 477019.6866
 1959.46768 -20118.34827 477035.9356
 -1959.467673 -20118.34827 477035.9356
 -5059.900378 -19962.14764 477019.6866
 0 0 -0
 0 0 -0
 0 0 -0
 0 0 0
 0 0 0
 0 0 0
 3884.320455 15495.49982 477196.6815
 1506.45216 15617.21022 477206.1448
 -1506.452154 15617.21023 477206.1448
 -3884.320448 15495.49982 477196.6815
 0 0 -0
 0 0 -0
 0 0 -0
 0 0 0
 11489.57248 11489.57241 477187.4377
 9317.962905 12053.98671 477220.859
 5492.230348 13356.66478 477245.5408
 1873.32252 13799.04599 477260.8807
 -1873.322512 13799.04598 477260.8807
 -5492.230343 13356.66479 477245.5408
 -9317.962897 12053.98671 477220.859
 -11489.57247 11489.57241 477187.4377
 0 0 -0
 0 0 0
 12053.98675 9317.96286 477220.859
 9798.173312 9798.17321 477262.8866
 6187.02801 10431.49573 477309.9369
 2113.375271 10749.67118 477338.2967
 -2113.375266 10749.67119 477338.2967
 -6187.027999 10431.49573 477309.9369
 -9798.17331 9798.173211 477262.8866
 -12053.98674 9317.96286 477220.859
 0 0 -0
 15495.49988 3884.320401 477196.6815
 13356.66488 5492.230254 477245.5408
 10431.49573 6187.028005 477309.9369
 6602.243815 6602.243672 477372.6972
 2256.569873 6799.789386 477410.245
 -2256.569864 6799.789389 477410.245
 -6602.243814 6602.24367 477372.6972
 -10431.49572 6187.028008 477309.9369
 -13356.66488 5492.230252 477245.5408
 -15495.49987 3884.320402 477196.6815
 15617.2103 1506.452087 477206.1448
 13799.046 1873.322497 477260.8807
 10749.67132 2113.375143 477338.2967
 6799.789356 2256.569898 477410.245
 2323.718429 2323.718265 477452.6908
 -2323.718425 2323.718249 477452.6908
 -6799.789342 2256.569912 477410.245
 -10749.67132 2113.375132 477338.2967
 -13799.04599 1873.322504 477260.8807
 -15617.2103 1506.452084 477206.1448
 15617.21027 -1506.452204 477206.1448
 13799.04609 -1873.322612 477260.8807
 10749.67118 -2113.375266 477338.2967
 6799.789547 -2256.570012 477410.245
 2323.718208 -2323.71839 477452.6908
 -2323.718198 -2323.718362 477452.6908
 -6799.789548 -2256.570037 477410.245
 -10749.67116 -2113.375246 477338.2967
 -13799.04609 -1873.322623 477260.8807
 -15617.21027 -1506.452201 477206.1448
 15495.49989 -3884.320517 477196.6815
 13356.66481 -5492.230376 477245.5408
 10431.49585 -6187.028113 477309.9369
 6602.243647 -6602.243805 477372.6972
 2256.570069 -6799.789489 477410.245
 -2256.570065 -6799.789525 477410.245
 -6602.243635 -6602.243774 477372.6972
 -10431.49585 -6187.028136 477309.9369
 -13356.6648 -5492.230364 477245.5408
 -15495.49989 -3884.320519 477196.6815
 0 0 0
 12053.98679 -9317.962973 477220.859
 9798.173229 -9798.173338 477262.8866
 6187.028135 -10431.49583 477309.9369
 2113.375122 -10749.67132 477338.2967
 -2113.375114 -10749.67129 477338.2967
 -6187.028132 -10431.49586 477309.9369
 -9798.173218 -9798.173319 477262.8866
 -12053.98678 -9317.962981 477220.859
 0 0 -0
 0 0 0
 11489.57247 -11489.57253 477187.4377
 9317.962941 -12053.98682 477220.859
 5492.230278 -13356.66491 477245.5408
 1873.32261 -13799.04609 477260.8807
 -1873.322604 -13799.04611 477260.8807
 -5492.230269 -13356.66489 477245.5408
 -9317.962936 -12053.98683 477220.859
 -11489.57246 -11489.57253 477187.4377
 0 0 -0
 0 0 0
 0 0 0
 0 0 0
 3884.320473 -15495.49994 477196.6815
 1506.452132 -15617.21035 477206.1448
 -1506.452125 -15617.21034 477206.1448
 -3884.320466 -15495.49994 477196.6815
 0 0 -0
 0 0 -0
 0 0 -0
 0 0 0
 0 0 0
 0 0 0
 2920.147131 11726.82563 477311.0365
 1132.783675 11816.4875 477316.4136
 -1132.783669 11816.48749 477316.4136
 -2920.147126 11726.82563 477311.0365
 0 0 -0
 0 0 -0
 0 0 -0
 0 0 0
 8697.346148 8697.346097 477305.5454
 7053.313354 9120.558143 477324.7715
 4151.655803 10113.88816 477338.815
 1415.701764 10455.16715 477347.4171
 -1415.701759 10455.16717 477347.417
 -4151.655794 10113.88814 477338.815
 -7053.313351 9120.558148 477324.7715
 -8697.346141 8697.346095 477305.5454
 0 0 -0
 0 0 0
 9120.558217 7053.313281 477324.7715
 7423.519623 7423.519604 477348.5666
 4693.700062 7918.189157 477375.2641
 1604.756455 8170.674227 477391.3867
 -1604.756447 8170.674207 477391.3867
 -4693.700063 7918.189173 477375.2641
 -7423.51961 7423.519594 477348.5666
 -9120.558215 7053.313285 477324.7715
 0 0 -0
 11726.8257 2920.147066 477311.0365
 10113.88818 4151.655775 477338.815
 7918.189273 4693.699949 477375.2641
 5024.924261 5024.924279 477411.1138
 1720.296115 5185.339073 477432.743
 -1720.296113 5185.339088 477432.743
 -5024.924245 5024.924266 477411.1138
 -7918.189279 4693.699958 477375.2641
 -10113.88817 4151.655771 477338.815
 -11726.82569 2920.147067 477311.0365
 11816.48754 1132.783629 477316.4136
 10455.16725 1415.701669 477347.417
 8170.674215 1604.756459 477391.3867
 5185.339222 1720.295971 477432.743
 1775.489767 1775.489807 477457.3976
 -1775.489756 1775.489804 477457.3976
 -5185.339228 1720.295974 477432.743
 -8170.674195 1604.756458 477391.3867
 -10455.16726 1415.70167 477347.417
 -11816.48753 1132.783629 477316.4136
 11816.48757 -1132.783738 477316.4136
 10455.16718 -1415.701782 477347.417
 8170.674339 -1604.756566 477391.3867
 5185.339053 -1720.296089 477432.7431
 1775.489966 -1775.489912 477457.3976
 -1775.489965 -1775.489923 477457.3976
 -5185.339035 -1720.296079 477432.7431
 -8170.674347 -1604.756573 477391.3867
 -10455.16717 -1415.701778 477347.417
 -11816.48756 -1132.783739 477316.4136
 11726.82568 -2920.147177 477311.0365
 10113.88824 -4151.65588 477338.815
 7918.189168 -4693.700071 477375.2641
 5024.924409 -5024.924374 477411.1138
 1720.295938 -5185.339203 477432.743
 -1720.295929 -5185.339181 477432.743
 -5024.924413 -5024.924393 477411.1138
 -7918.18915 -4693.700058 477375.2641
 -10113.88824 -4151.655887 477338.815
 -11726.82568 -2920.147175 477311.0365
 0 0 0
 9120.558189 -7053.313396 477324.7715
 7423.519697 -7423.519703 477348.5666
 4693.699952 -7918.189286 477375.2641
 1604.75659 -8170.674316 477391.3867
 -1604.756587 -8170.67434 477391.3867
 -4693.69994 -7918.189266 477375.2641
 -7423.519698 -7423.519716 477348.5666
 -9120.558179 -7053.313391 477324.7715
 0 0 -0
 0 0 0
 8697.346161 -8697.346205 477305.5454
 7053.313325 -9120.558259 477324.7715
 4151.655866 -10113.88825 477338.815
 1415.701683 -10455.16728 477347.417
 -1415.701675 -10455.16726 477347.417
 -4151.655864 -10113.88827 477338.815
 -7053.313317 -9120.558253 477324.7715
 -8697.346156 -8697.346207 477305.5454
 0 0 -0
 0 0 0
 0 0 0
 0 0 0
 2920.147116 -11726.82575 477311.0365
 1132.783701 -11816.4876 477316.4136
 -1132.783696 -11816.48761 477316.4136
 -2920.14711 -11726.82574 477311.0365
 0 0 -0
 0 0 -0
 0 0 -0
 0 0 0
 0 0 0
 0 0 0
 2154.540987 8688.490014 477380.0785
 835.720056 8752.196857 477383.0453
 -835.7200516 8752.196864 477383.0453
 -2154.540981 8688.49001 477380.0785
 0 0 -0
 0 0 -0
 0 0 -0
 0 0 0
 6445.772056 6445.771999 477376.974
 5223.760613 6753.283748 477387.6588
 3070.586142 7489.008168 477395.3891
 1046.521729 7741.865753 477400.0834
 -1046.521721 7741.865732 477400.0834
 -3070.586142 7489.008184 477395.3891
 -5223.760604 6753.283741 477387.6588
 -6445.772053 6445.772002 477376.974
 0 0 -0
 0 0 0
 6753.28379 5223.76057 477387.6588
 5496.414285 5496.414204 477400.7228
 3475.280847 5865.06858 477415.3272
 1188.337307 6054.48792 477424.1325
 -1188.337306 6054.487948 477424.1325
 -3475.280831 5865.068557 477415.3272
 -5496.414291 5496.414219 477400.7228
 -6753.283779 5223.760564 477387.6588
 0 0 -0
 8688.490062 2154.540939 477380.0785
 7489.008246 3070.586067 477395.3891
 5865.068593 3475.280832 477415.3272
 3724.815985 3724.815874 477434.9409
 1275.934053 3846.690392 477446.7994
 -1275.934042 3846.690366 477446.7994
 -3724.815995 3724.815897 477434.9409
 -5865.068569 3475.280816 477415.3272
 -7489.008254 3070.586075 477395.3891
 -8688.490054 2154.540937 477380.0785
 8752.196922 835.7199941 477383.0453
 7741.865775 1046.521701 477400.0834
 6054.488027 1188.337207 477424.1325
 3846.690378 1275.934062 477446.7994
 1318.171986 1318.171854 477460.3608
 -1318.171988 1318.17187 477460.3608
 -3846.690355 1275.934048 477446.7994
 -6054.488044 1188.337217 477424.1325
 -7741.865753 1046.521695 477400.0834
 -8752.196923 835.7199957 477383.0453
 8752.196908 -835.7200978 477383.0453
 7741.86582 -1046.521802 477400.0834
 6054.487947 -1188.337315 477424.1325
 3846.690494 -1275.93416 477446.7994
 1318.171842 -1318.171965 477460.3608
 -1318.17183 -1318.171967 477460.3608
 -3846.690507 -1275.934158 477446.7994
 -6054.48792 -1188.337317 477424.1325
 -7741.865832 -1046.521801 477400.0834
 -8752.196897 -835.7200982 477383.0453
 8688.490072 -2154.541041 477380.0785
 7489.00821 -3070.586176 477395.3891
 5865.068662 -3475.280925 477415.3272
 3724.815884 -3724.815994 477434.9409
 1275.93418 -3846.690478 477446.7994
 -1275.934181 -3846.690488 477446.7994
 -3724.815863 -3724.815986 477434.9409
 -5865.068675 -3475.280931 477415.3272
 -7489.008192 -3070.586173 477395.3891
 -8688.49007 -2154.541041 477380.0785
 0 0 0
 6753.28381 -5223.76067 477387.6588
 5496.414238 -5496.414319 477400.7228
 3475.280923 -5865.068667 477415.3272
 1188.33721 -6054.488046 477424.1325
 -1188.3372 -6054.488031 477424.1325
 -3475.280929 -5865.068679 477415.3272
 -5496.414222 -5496.414311 477400.7228
 -6753.283811 -5223.760672 477387.6588
 0 0 -0
 0 0 0
 6445.772052 -6445.772105 477376.974
 5223.760635 -6753.283845 477387.6588
 3070.586099 -7489.008285 477395.3891
 1046.521788 -7741.86584 477400.0834
 -1046.521785 -7741.865853 477400.0834
 -3070.586089 -7489.008275 477395.3891
 -5223.760634 -6753.28385 477387.6588
 -6445.772045 -6445.772103 477376.974
 0 0 -0
 0 0 0
 0 0 0
 0 0 0
 2154.540999 -8688.490115 477380.0785
 835.7200376 -8752.196967 477383.0453
 -835.7200319 -8752.196962 477383.0453
 -2154.540995 -8688.490118 477380.0785
 0 0 -0
 0 0 -0
 0 0 -0
 0 0 0
 0 0 0
 0 0 0
 1555.625044 6290.177507 477420.0299
 603.3028187 6334.223953 477421.6008
 -603.3028136 6334.223947 477421.6008
 -1555.625042 6290.17751 477420.0299
 0 0 -0
 0 0 -0
 0 0 -0
 0 0 0
 4667.826735 4667.826687 477418.3638
 3779.553267 4885.483324 477424.0446
 2218.945951 5416.254606 477428.1221
 755.8335043 5597.840765 477430.5857
 -755.8335035 5597.840781 477430.5857
 -2218.945939 5416.254593 477428.1221
 -3779.553269 4885.48333 477424.0446
 -4667.826728 4667.826684 477418.3638
 0 0 -0
 0 0 0
 4885.483377 3779.553215 477424.0446
 3973.736445 3973.736401 477430.9271
 2511.043286 4238.980048 477438.5793
 858.3968073 4375.496138 477443.1793
 -858.3967968 4375.496115 477443.1793
 -2511.043297 4238.980067 477438.5793
 -3973.736424 3973.736389 477430.9271
 -4885.483382 3779.553219 477424.0446
 0 0 -0
 6290.177559 1555.624993 477420.0299
 5416.25465 2218.945905 477428.1221
 4238.980112 2511.043224 477438.5793
 2691.430139 2691.430108 477448.8284
 921.9150394 2779.770952 477455.018
 -921.9150441 2779.770973 477455.018
 -2691.430112 2691.43009 477448.8284
 -4238.980134 2511.043236 477438.5793
 -5416.254627 2218.945899 477428.1221
 -6290.17756 1555.624994 477420.0299
 6334.224 603.3027704 477421.6008
 5597.840827 755.8334464 477430.5857
 4375.496169 858.3967718 477443.1793
 2779.771031 921.9149629 477455.018
 952.6446354 952.6446205 477462.0993
 -952.6446208 952.6446089 477462.0993
 -2779.771054 921.9149729 477455.018
 -4375.496133 858.3967646 477443.1793
 -5597.840847 755.8334503 477430.5857
 -6334.223988 603.3027692 477421.6008
 6334.224002 -603.3028666 477421.6008
 5597.840819 -755.8335456 477430.5857
 4375.496191 -858.3968654 477443.1793
 2779.770988 -921.9150661 477455.018
 952.6447038 -952.6447123 477462.0993
 -952.6447099 -952.6447131 477462.0993
 -2779.770958 -921.9150653 477455.018
 -4375.496219 -858.3968659 477443.1793
 -5597.84079 -755.8335454 477430.5857
 -6334.224007 -603.3028666 477421.6008
 6290.177559 -1555.625091 477420.0299
 5416.254657 -2218.945998 477428.1221
 4238.980093 -2511.043331 477438.5793
 2691.430178 -2691.430192 477448.8284
 921.9149788 -2779.771066 477455.018
 -921.9149659 -2779.771055 477455.018
 -2691.430196 -2691.430201 477448.8284
 -4238.980063 -2511.043324 477438.5793
 -5416.254672 -2218.946001 477428.1221
 -6290.17755 -1555.62509 477420.0299
 0 0 0
 4885.483374 -3779.553316 477424.0446
 3973.73646 -3973.736489 477430.9271
 2511.043256 -4238.980161 477438.5793
 858.396854 -4375.496217 477443.1793
 -858.396856 -4375.496232 477443.1793
 -2511.043237 -4238.980149 477438.5793
 -3973.736472 -3973.736497 477430.9271
 -4885.483362 -3779.553313 477424.0446
 0 0 -0
 0 0 0
 4667.826739 -4667.826782 477418.3638
 3779.553262 -4885.483427 477424.0446
 2218.945969 -5416.254693 477428.1221
 755.833476 -5597.840877 477430.5857
 -755.8334686 -5597.840865 477430.5857
 -2218.945972 -5416.254702 477428.1221
 -3779.553252 -4885.483423 477424.0446
 -4667.826738 -4667.826783 477418.3638
 0 0 -0
 0 0 0
 0 0 0
 0 0 0
 1555.62504 -6290.177608 477420.0299
 603.3028281 -6334.224046 477421.6008
 -603.3028248 -6334.22405 477421.6008
 -1555.625035 -6290.177605 477420.0299
 0 0 -0
 0 0 -0
 0 0 -0
 0 0 0
 0 0 0
 0 0 0
 1086.791827 4402.033372 477442.4701
 421.3998537 4431.553063 477443.248
 -421.3998517 4431.553064 477443.248
 -1086.791822 4402.033371 477442.4701
 0 0 -0
 0 0 -0
 0 0 -0
 0 0 0
 3267.481647 3267.481604 477441.6388
 2643.438619 3416.56813 477444.4581
 1550.362702 3786.387831 477446.4692
 527.8193479 3912.145652 477447.6807
 -527.81934 3912.145648 477447.6807
 -1550.362709 3786.387833 477446.4692
 -2643.438608 3416.568129 477444.4581
 -3267.481647 3267.481604 477441.6388
 0 0 -0
 0 0 0
 3416.568185 2643.438564 477444.4581
 2776.773932 2776.773904 477447.8509
 1753.317916 2960.442598 477451.6027
 599.1239486 3054.908035 477453.8511
 -599.1239538 3054.908037 477453.8511
 -1753.317892 2960.442596 477451.6027
 -2776.773951 2776.773904 477447.8509
 -3416.56817 2643.438564 477444.4581
 0 0 -0
 4402.033424 1086.791776 477442.4701
 3786.387863 1550.36267 477446.4692
 2960.442669 1753.317844 477451.6027
 1878.402751 1878.402731 477456.6101
 643.2223746 1939.643438 477459.6269
 -643.2223593 1939.643442 477459.6269
 -1878.402778 1878.402727 477456.6101
 -2960.442631 1753.317847 477451.6027
 -3786.387885 1550.362668 477446.4692
 -4402.033413 1086.791777 477442.4701
 4431.553105 421.3998124 477443.248
 3912.145715 527.8192835 477447.6807
 3054.90806 599.1239255 477453.8511
 1939.643509 643.2223021 477459.6269
 664.5583336 664.5583043 477463.075
 -664.5583443 664.5582907 477463.075
 -1939.64347 643.2223143 477459.6269
 -3054.908099 599.1239158 477453.8511
 -3912.145679 527.8192896 477447.6807
 -4431.553113 421.3998103 477443.248
 4431.553117 -421.399904 477443.248
 3912.145683 -527.8193734 477447.6807
 3054.908102 -599.1240202 477453.8511
 1939.643474 -643.2223901 477459.6269
 664.5583468 -664.5584011 477463.075
 -664.5583295 -664.5583782 477463.075
 -1939.643507 -643.2224104 477459.6269
 -3054.908056 -599.1240047 477453.8511
 -3912.145713 -527.8193827 477447.6807
 -4431.553102 -421.3999011 477443.248
 4402.033418 -1086.791867 477442.4701
 3786.387889 -1550.362765 477446.4692
 2960.442635 -1753.317928 477451.6027
 1878.402781 -1878.402833 477456.6101
 643.2223634 -1939.643518 477459.6269
 -643.2223719 -1939.643546 477459.6269
 -1878.402747 -1878.402809 477456.6101
 -2960.442667 -1753.317946 477451.6027
 -3786.38786 -1550.362756 477446.4692
 -4402.033421 -1086.791869 477442.4701
 0 0 0
 3416.568175 -2643.438653 477444.4581
 2776.773955 -2776.774004 477447.8509
 1753.317896 -2960.442678 477451.6027
 599.1239568 -3054.908141 477453.8511
 -599.1239452 -3054.908115 477453.8511
 -1753.317913 -2960.4427 477451.6027
 -2776.77393 -2776.773989 477447.8509
 -3416.568183 -2643.438659 477444.4581
 0 0 -0
 0 0 0
 3267.481653 -3267.481697 477441.6388
 2643.438613 -3416.568218 477444.4581
 1550.362713 -3786.387931 477446.4692
 527.8193437 -3912.145733 477447.6807
 -527.8193449 -3912.145751 477447.6807
 -1550.362699 -3786.387917 477446.4692
 -2643.438617 -3416.568225 477444.4581
 -3267.481646 -3267.481694 477441.6388
 0 0 -0
 0 0 0
 0 0 0
 0 0 0
 1086.791826 -4402.033463 477442.4701
 421.3998552 -4431.553159 477443.248
 -421.3998507 -4431.553153 477443.248
 -1086.791825 -4402.033466 477442.4701
 0 0 -0
 0 0 -0
 0 0 -0
 0 0 0
 0 0 0
 0 0 0
 713.1019613 2891.489534 477454.7121
 276.4565128 2910.195158 477455.0509
 -276.4565088 2910.195163 477455.0509
 -713.1019618 2891.489531 477454.7121
 0 0 -0
 0 0 -0
 0 0 -0
 0 0 0
 2146.690079 2146.690028 477454.3483
 1735.475522 2242.887747 477455.5779
 1017.059856 2484.82586 477456.4509
 346.1099532 2566.63096 477456.976
 -346.1099568 2566.630944 477456.976
 -1017.05984 2484.825873 477456.4509
 -1735.47553 2242.88774 477455.5779
 -2146.690072 2146.69003 477454.3483
 0 0 -0
 0 0 0
 2242.88777 1735.475498 477455.5779
 1821.569597 1821.569506 477457.0505
 1149.353889 1940.934456 477458.6716
 392.5876004 2002.234482 477459.6404
 -392.5875872 2002.234511 477459.6404
 -1149.353914 1940.934431 477458.6716
 -1821.569566 1821.569523 477457.0505
 -2242.887783 1735.475491 477455.5779
 0 0 -0
 2891.489569 713.1019268 477454.7121
 2484.825944 1017.059773 477456.4509
 1940.934435 1149.353909 477458.6716
 1230.635935 1230.63581 477460.8281
 421.2507318 1270.373447 477462.1241
 -421.2507448 1270.373406 477462.1241
 -1230.635893 1230.635846 477460.8281
 -1940.934478 1149.353882 477458.6716
 -2484.825909 1017.059789 477456.4509
 -2891.489575 713.1019229 477454.7121
 2910.195218 276.4564542 477455.0509
 2566.630959 346.1099527 477456.976
 2002.234597 392.5874881 477459.6404
 1270.37341 421.2507669 477462.1241
 435.1010325 435.1009097 477463.6035
 -435.1010121 435.1009618 477463.6035
 -1270.373454 421.2507207 477462.1241
 -2002.23454 392.5875236 477459.6404
 -2566.630999 346.1099311 477456.976
 -2910.1952 276.4564611 477455.0509
 2910.195194 -276.4565404 477455.0509
 2566.631031 -346.1100402 477456.976
 2002.234493 -392.5875735 477459.6404
 1270.373521 -421.2508563 477462.1241
 435.1009417 -435.1009944 477463.6035
 -435.1009572 -435.1010516 477463.6035
 -1270.373472 -421.2508056 477462.1241
 -2002.234546 -392.5876121 477459.6404
 -2566.630986 -346.1100169 477456.976
 -2910.195206 -276.4565478 477455.0509
 2891.489584 -713.1020134 477454.7121
 2484.825889 -1017.059858 477456.4509
 1940.934523 -1149.354 477458.6716
 1230.63584 -1230.635891 477460.8281
 421.2508117 -1270.373541 477462.1241
 -421.2507941 -1270.373486 477462.1241
 -1230.635876 -1230.635939 477460.8281
 -1940.934475 -1149.353965 477458.6716
 -2484.825919 -1017.059878 477456.4509
 -2891.489573 -713.1020086 477454.7121
 0 0 0
 2242.887798 -1735.475587 477455.5779
 1821.569541 -1821.569589 477457.0505
 1149.353958 -1940.93455 477458.6716
 392.5875405 -2002.234562 477459.6404
 -392.5875489 -2002.234606 477459.6404
 -1149.353929 -1940.934512 477458.6716
 -1821.569567 -1821.569614 477457.0505
 -2242.887781 -1735.475576 477455.5779
 0 0 -0
 0 0 0
 2146.690072 -2146.690114 477454.3483
 1735.475545 -2242.887836 477455.5779
 1017.059819 -2484.825943 477456.4509
 346.1099891 -2566.631054 477456.976
 -346.109981 -2566.631026 477456.976
 -1017.05983 -2484.825965 477456.4509
 -1735.475533 -2242.887825 477455.5779
 -2146.690074 -2146.690118 477454.3483
 0 0 -0
 0 0 0
 0 0 0
 0 0 0
 713.1019705 -2891.489623 477454.7121
 276.456502 -2910.195243 477455.0509
 -276.4565012 -2910.195252 477455.0509
 -713.1019655 -2891.489617 477454.7121
 0 0 -0
 0 0 -0
 0 0 -0
 0 0 0
 0 0 0
 0 0 0
 403.4541495 1636.918102 477461.0236
 156.3920975 1647.240992 477461.1329
 -156.392098 1647.24098 477461.1329
 -403.4541447 1636.918109 477461.0236
 0 0 -0
 0 0 -0
 0 0 -0
 0 0 0
 1215.449239 1215.449209 477460.9059
 982.1309698 1269.225045 477461.3029
 575.2715451 1405.779914 477461.5839
 195.7101933 1451.755901 477461.7528
 -195.7101847 1451.755937 477461.7528
 -575.2715602 1405.779885 477461.5839
 -982.1309554 1269.225059 477461.3029
 -1215.449243 1215.449204 477460.9059
 0 0 -0
 0 0 0
 1269.225119 982.1308967 477461.3029
 1030.258203 1030.258235 477461.7769