# OOMMF OVF 2.0
#
# Segment count: 1
#
# Begin: Segment
# Begin: Header
#
# Title: Oxs_MinDriver::Magnetization
# Desc: Oxs vector field output
# Desc:  MIF source file: F:/Bogdan/UNIC/2022/Master_degree/Samples/Cylinder0_5000 1.mif
# Desc:  Iteration: 918, State id: 6475
# Desc:  Stage: 4, Stage iteration: 45
# Desc:  Stage simulation time: 0 s
# Desc:  Total simulation time: -2 s
# meshunit: m
# meshtype: rectangular
# xbase: -8.9999999999999995e-09
# ybase: -8.9999999999999995e-09
# zbase: -2.0999999999999999e-08
# xnodes: 10
# ynodes: 10
# znodes: 22
# xstepsize: 2.0000000000000001e-09
# ystepsize: 2.0000000000000001e-09
# zstepsize: 2.0000000000000001e-09
# xmin: -1e-08
# ymin: -1e-08
# zmin: -2.1999999999999998e-08
# xmax: 1e-08
# ymax: 1e-08
# zmax: 2.2000000000000005e-08
# valuedim: 3
# valuelabels: Magnetization_x Magnetization_y Magnetization_z
# valueunits: A/m A/m A/m
#
# End: Header
#
# Begin: Data Text
 0 0 0
 0 0 0
 0 0 0
 8332.112748 31437.83053 476355.0252
 3138.201727 31657.47828 476403.0091
 -3138.201752 31657.47827 476403.0091
 -8332.112773 31437.83053 476355.0252
 0 0 -0
 0 0 -0
 0 0 -0
 0 0 0
 23347.64714 23347.64699 476320.9486
 18562.71762 24341.43115 476481.6802
 10987.20798 26430.18511 476605.2852
 3714.18421 26997.54857 476685.6496
 -3714.184235 26997.54859 476685.6496
 -10987.20801 26430.1851 476605.2852
 -18562.71765 24341.43116 476481.6802
 -23347.64717 23347.64699 476320.9486
 0 0 -0
 0 0 0
 24341.43131 18562.71746 476481.6802
 19162.49205 19162.4919 476694.3141
 11882.08122 19984.13471 476897.601
 4018.87316 20347.85897 477013.296
 -4018.873186 20347.85895 477013.296
 -11882.08125 19984.13473 476897.601
 -19162.49208 19162.49189 476694.3141
 -24341.43133 18562.71747 476481.6802
 0 0 -0
 31437.83069 8332.112593 476355.0252
 26430.18526 10987.20783 476605.2852
 19984.13488 11882.08105 476897.601
 12369.90196 12369.90181 477143.4191
 4181.916917 12585.88489 477279.7695
 -4181.916942 12585.88492 477279.7695
 -12369.90198 12369.90179 477143.4191
 -19984.1349 11882.08107 476897.601
 -26430.18529 10987.20782 476605.2852
 -31437.83071 8332.112595 476355.0252
 31657.47843 3138.201575 476403.0091
 26997.54874 3714.184047 476685.6496
 20347.85912 4018.873014 477013.296
 12585.88507 4181.916744 477279.7695
 4254.022281 4254.022138 477426.0968
 -4254.022307 4254.022111 477426.0968
 -12585.88509 4181.916767 477279.7695
 -20347.85914 4018.872995 477013.296
 -26997.54876 3714.184058 476685.6496
 -31657.47845 3138.201571 476403.0091
 31657.47843 -3138.201909 476403.0091
 26997.54873 -3714.184385 476685.6496
 20347.85912 -4018.873353 477013.296
 12585.88506 -4181.917088 477279.7695
 4254.022287 -4254.022481 477426.0968
 -4254.022312 -4254.022457 477426.0968
 -12585.88509 -4181.917109 477279.7695
 -20347.85915 -4018.873337 477013.296
 -26997.54876 -3714.184395 476685.6496
 -31657.47846 -3138.201906 476403.0091
 31437.83069 -8332.112926 476355.0252
 26430.18526 -10987.20817 476605.2852
 19984.13488 -11882.0814 476897.6009
 12369.90196 -12369.90215 477143.419
 4181.916912 -12585.88524 477279.7695
 -4181.916937 -12585.88526 477279.7695
 -12369.90199 -12369.90213 477143.419
 -19984.1349 -11882.08141 476897.6009
 -26430.18529 -10987.20816 476605.2852
 -31437.83071 -8332.112928 476355.0252
 0 0 0
 24341.43131 -18562.7178 476481.6802
 19162.49206 -19162.49224 476694.3141
 11882.08122 -19984.13505 476897.6009
 4018.873164 -20347.85931 477013.296
 -4018.873189 -20347.8593 477013.296
 -11882.08124 -19984.13506 476897.6009
 -19162.49208 -19162.49223 476694.3141
 -24341.43133 -18562.7178 476481.6802
 0 0 -0
 0 0 0
 23347.64714 -23347.64732 476320.9486
 18562.71762 -24341.43148 476481.6802
 10987.20798 -26430.18545 476605.2852
 3714.184208 -26997.54891 476685.6495
 -3714.184233 -26997.54892 476685.6495
 -10987.20801 -26430.18544 476605.2852
 -18562.71765 -24341.43149 476481.6802
 -23347.64717 -23347.64732 476320.9486
 0 0 -0
 0 0 0
 0 0 0
 0 0 0
 8332.112749 -31437.83087 476355.0251
 3138.201729 -31657.47861 476403.0091
 -3138.201753 -31657.47861 476403.0091
 -8332.112773 -31437.83087 476355.0251
 0 0 -0
 0 0 -0
 0 0 -0
 0 0 0
 0 0 0
 0 0 0
 6973.608884 27156.70573 476640.0669
 2685.395398 27360.01904 476671.8885
 -2685.395422 27360.01905 476671.8885
 -6973.608909 27156.70572 476640.0669
 0 0 -0
 0 0 -0
 0 0 -0
 0 0 0
 20131.95174 20131.95158 476614.3938
 16219.77426 21067.9275 476723.1195
 9577.040906 23172.91343 476805.1674
 3257.520662 23818.54058 476858.4035
 -3257.520687 23818.54055 476858.4035
 -9577.040929 23172.91346 476805.1674
 -16219.77429 21067.92749 476723.1195
 -20131.95176 20131.95159 476614.3938
 0 0 -0
 0 0 0
 21067.92764 16219.77412 476723.1195
 16904.82349 16904.82331 476865.1017
 10572.19763 17801.00754 477014.9097
 3591.385527 18219.69349 477102.7311
 -3591.385551 18219.69355 477102.7311
 -10572.19766 17801.00749 477014.9097
 -16904.82351 16904.82335 476865.1017
 -21067.92767 16219.77411 476723.1195
 0 0 -0
 27156.70588 6973.608738 476640.0669
 23172.9136 9577.040738 476805.1674
 17801.00767 10572.19751 477014.9097
 11119.86183 11119.86164 477204.9545
 3774.698859 11366.08225 477313.7701
 -3774.698884 11366.08218 477313.7701
 -11119.86186 11119.86171 477204.9545
 -17801.00769 10572.19746 477014.9097
 -23172.91362 9577.040764 476805.1674
 -27156.7059 6973.608731 476640.0669
 27360.01919 2685.395241 476671.8885
 23818.54071 3257.520527 476858.4035
 18219.69367 3591.385343 477102.7311
 11366.08237 3774.698743 477313.7701
 3856.472286 3856.472087 477432.8503
 -3856.47231 3856.472163 477432.8503
 -11366.08239 3774.698675 477313.7701
 -18219.6937 3591.385394 477102.7311
 -23818.54074 3257.520497 476858.4035
 -27360.01922 2685.39525 476671.8885
 27360.01919 -2685.395568 476671.8885
 23818.54072 -3257.520856 476858.4035
 18219.69367 -3591.385679 477102.7311
 11366.08238 -3774.699074 477313.7701
 3856.472276 -3856.472427 477432.8503
 -3856.472301 -3856.472495 477432.8503
 -11366.0824 -3774.699014 477313.7701
 -18219.69369 -3591.385725 477102.7311
 -23818.54074 -3257.520828 476858.4035
 -27360.01922 -2685.395578 476671.8885
 27156.70588 -6973.609063 476640.0669
 23172.9136 -9577.04107 476805.1674
 17801.00767 -10572.19783 477014.9097
 11119.86183 -11119.86198 477204.9545
 3774.698868 -11366.08258 477313.7701
 -3774.698893 -11366.08252 477313.7701
 -11119.86185 -11119.86203 477204.9545
 -17801.0077 -10572.1978 477014.9097
 -23172.91362 -9577.041091 476805.1674
 -27156.7059 -6973.609058 476640.0669
 0 0 0
 21067.92765 -16219.77445 476723.1195
 16904.82348 -16904.82365 476865.1017
 10572.19764 -17801.00786 477014.9097
 3591.38552 -18219.69383 477102.7311
 -3591.385544 -18219.69387 477102.7311
 -10572.19766 -17801.00783 477014.9097
 -16904.82351 -16904.82367 476865.1017
 -21067.92767 -16219.77444 476723.1195
 0 0 -0
 0 0 0
 20131.95174 -20131.95191 476614.3937
 16219.77427 -21067.92783 476723.1195
 9577.040903 -23172.91376 476805.1674
 3257.520667 -23818.5409 476858.4035
 -3257.520691 -23818.54088 476858.4035
 -9577.040926 -23172.91378 476805.1674
 -16219.77429 -21067.92782 476723.1195
 -20131.95176 -20131.95191 476614.3937
 0 0 -0
 0 0 0
 0 0 0
 0 0 0
 6973.608887 -27156.70605 476640.0669
 2685.395397 -27360.01937 476671.8885
 -2685.395421 -27360.01937 476671.8885
 -6973.60891 -27156.70605 476640.0669
 0 0 -0
 0 0 -0
 0 0 -0
 0 0 0
 0 0 0
 0 0 0
 5550.879154 22026.30419 476923.3701
 2150.71212 22197.90386 476942.8674
 -2150.712142 22197.90384 476942.8674
 -5550.879176 22026.3042 476923.3701
 0 0 -0
 0 0 -0
 0 0 -0
 0 0 0
 16322.10761 16322.10747 476905.7023
 13220.16242 17116.30562 476973.9308
 7794.271618 18935.58595 477024.6998
 2656.736549 19535.78674 477056.7745
 -2656.736571 19535.7868 477056.7745
 -7794.271642 18935.5859 477024.6998
 -13220.16244 17116.30564 476973.9308
 -16322.10763 16322.10746 476905.7023
 0 0 -0
 0 0 0
 17116.30578 13220.16226 476973.9308
 13866.22207 13866.22195 477061.1356
 8728.48294 14712.65564 477157.4401
 2975.813333 15127.6036 477215.0159
 -2975.813356 15127.60351 477215.0159
 -8728.482961 14712.65572 477157.4401
 -13866.2221 13866.2219 477061.1356
 -17116.3058 13220.16228 476973.9308
 0 0 -0
 22026.30435 5550.879004 476923.3701
 18935.58607 7794.27149 477024.6998
 14712.65583 8728.482756 477157.4401
 9269.1197 9269.119598 477284.0225
 3159.990964 9520.529106 477358.6129
 -3159.990985 9520.529216 477358.6129
 -9269.119726 9269.119503 477284.0225
 -14712.65585 8728.482826 477157.4401
 -18935.5861 7794.271451 477024.6998
 -22026.30437 5550.879013 476923.3701
 22197.904 2150.71198 476942.8674
 19535.78692 2656.736379 477056.7745
 15127.6037 2975.81322 477215.0159
 9520.529311 3159.990765 477358.6129
 3244.509499 3244.509402 477441.9521
 -3244.509523 3244.50929 477441.9521
 -9520.529331 3159.990864 477358.6129
 -15127.60373 2975.813145 477215.0159
 -19535.78694 2656.736424 477056.7745
 -22197.90402 2150.711965 476942.8674
 22197.904 -2150.712296 476942.8674
 19535.78692 -2656.7367 477056.7745
 15127.6037 -2975.813538 477215.0159
 9520.529314 -3159.991094 477358.6129
 3244.509494 -3244.509721 477441.9521
 -3244.509516 -3244.509621 477441.9521
 -9520.529338 -3159.991183 477358.6129
 -15127.60372 -2975.81347 477215.0159
 -19535.78694 -2656.736742 477056.7745
 -22197.90402 -2150.712283 476942.8674
 22026.30435 -5550.87932 476923.3701
 18935.58607 -7794.271804 477024.6998
 14712.65583 -8728.483086 477157.4401
 9269.119698 -9269.119908 477284.0225
 3159.990968 -9520.529446 477358.6129
 -3159.990991 -9520.529524 477358.6129
 -9269.11972 -9269.119838 477284.0225
 -14712.65586 -8728.483138 477157.4401
 -18935.5861 -7794.271774 477024.6998
 -22026.30437 -5550.879328 476923.3701
 0 0 0
 17116.30578 -13220.16258 476973.9308
 13866.22207 -13866.22226 477061.1356
 8728.482943 -14712.65598 477157.4401
 2975.81333 -15127.6039 477215.0159
 -2975.813352 -15127.60385 477215.0159
 -8728.482965 -14712.65603 477157.4401
 -13866.2221 -13866.22223 477061.1356
 -17116.3058 -13220.1626 476973.9308
 0 0 -0
 0 0 0
 16322.10761 -16322.10778 476905.7023
 13220.16242 -17116.30594 476973.9308
 7794.271619 -18935.58626 477024.6998
 2656.736551 -19535.78707 477056.7745
 -2656.736573 -19535.7871 477056.7745
 -7794.271641 -18935.58623 477024.6998
 -13220.16245 -17116.30595 476973.9308
 -16322.10764 -16322.10778 476905.7023
 0 0 -0
 0 0 0
 0 0 0
 0 0 0
 5550.879156 -22026.30451 476923.3701
 2150.71212 -22197.90417 476942.8674
 -2150.712142 -22197.90416 476942.8674
 -5550.879178 -22026.30452 476923.3701
 0 0 -0
 0 0 -0
 0 0 -0
 0 0 0
 0 0 0
 0 0 0
 4292.238902 17216.85974 477134.1821
 1665.316661 17350.73187 477145.7326
 -1665.316681 17350.7319 477145.7326
 -4292.238923 17216.85973 477134.1821
 0 0 -0
 0 0 -0
 0 0 -0
 0 0 0
 12759.15501 12759.15487 477122.9184
 10349.40938 13385.84619 477164.1019
 6093.299642 14841.52358 477194.3757
 2077.611113 15337.07376 477213.0855
 -2077.611134 15337.07369 477213.0855
 -6093.299662 14841.52363 477194.3757
 -10349.4094 13385.84616 477164.1019
 -12759.15503 12759.15488 477122.9184
 0 0 -0
 0 0 0
 13385.84632 10349.40925 477164.1019
 10886.26436 10886.26419 477215.7267
 6875.182536 11598.10645 477273.5977
 2348.681079 11957.07935 477308.4781
 -2348.681098 11957.07946 477308.4781
 -6875.182559 11598.10636 477273.5977
 -10886.26438 10886.26425 477215.7267
 -13385.84634 10349.40922 477164.1019
 0 0 -0
 17216.85988 4292.238765 477134.1821
 14841.52374 6093.299484 477194.3757
 11598.10656 6875.182421 477273.5977
 7344.84535 7344.845166 477351.0006
 2511.245165 7569.207931 477397.3942
 -2511.245187 7569.207802 477397.3943
 -7344.845368 7344.845278 477351.0006
 -11598.10658 6875.182339 477273.5977
 -14841.52376 6093.299529 477194.3757
 -17216.8599 4292.238754 477134.1821
 17350.73203 1665.316513 477145.7326
 15337.07388 2077.610987 477213.0855
 11957.07954 2348.680906 477308.4781
 7569.208031 2511.245058 477397.3942
 2587.799921 2587.799733 477449.9742
 -2587.799941 2587.799864 477449.9742
 -7569.208054 2511.244943 477397.3942
 -11957.07956 2348.680993 477308.4781
 -15337.0739 2077.610934 477213.0855
 -17350.73204 1665.316529 477145.7326
 17350.73203 -1665.31682 477145.7326
 15337.07386 -2077.611291 477213.0855
 11957.07957 -2348.68122 477308.4781
 7569.207992 -2511.245362 477397.3942
 2587.799967 -2587.800053 477449.9742
 -2587.799989 -2587.800168 477449.9742
 -7569.20801 -2511.245261 477397.3942
 -11957.07959 -2348.681298 477308.4781
 -15337.07388 -2077.611245 477213.0855
 -17350.73205 -1665.316835 477145.7326
 17216.85988 -4292.239068 477134.1821
 14841.52376 -6093.299797 477194.3757
 11598.10654 -6875.182718 477273.5977
 7344.845385 -7344.845493 477351.0006
 2511.245125 -7569.208222 477397.3942
 -2511.245145 -7569.208133 477397.3942
 -7344.845407 -7344.845572 477351.0006
 -11598.10656 -6875.18266 477273.5977
 -14841.52378 -6093.299831 477194.3757
 -17216.8599 -4292.23906 477134.1821
 0 0 0
 13385.84632 -10349.40955 477164.1019
 10886.26438 -10886.26451 477215.7267
 6875.182512 -11598.10674 477273.5977
 2348.68111 -11957.07969 477308.4781
 -2348.68113 -11957.07975 477308.4781
 -6875.182531 -11598.10669 477273.5977
 -10886.2644 -10886.26455 477215.7267
 -13385.84634 -10349.40953 477164.1019
 0 0 -0
 0 0 0
 12759.15502 -12759.15517 477122.9184
 10349.40938 -13385.84649 477164.1019
 6093.299658 -14841.5239 477194.3757
 2077.611095 -15337.07405 477213.0855
 -2077.611116 -15337.07402 477213.0855
 -6093.299678 -14841.52393 477194.3757
 -10349.4094 -13385.84648 477164.1019
 -12759.15504 -12759.15518 477122.9184
 0 0 -0
 0 0 0
 0 0 0
 0 0 0
 4292.238901 -17216.86005 477134.1821
 1665.316667 -17350.73219 477145.7326
 -1665.316687 -17350.7322 477145.7326
 -4292.238921 -17216.86004 477134.1821
 0 0 -0
 0 0 -0
 0 0 -0
 0 0 0
 0 0 0
 0 0 0
 3247.396903 13111.958 477272.8803
 1260.207539 13210.98501 477279.5334
 -1260.207557 13210.98499 477279.5334
 -3247.396921 13111.95802 477272.8803
 0 0 -0
 0 0 -0
 0 0 -0
 0 0 0
 9719.123049 9719.122914 477266.1193
 7882.758137 10191.49246 477290.1286
 4634.394671 11307.54359 477307.5876
 1579.671205 11691.27678 477318.2272
 -1579.671223 11691.27685 477318.2272
 -4634.39469 11307.54354 477307.5876
 -7882.758155 10191.49248 477290.1286
 -9719.123067 9719.122905 477266.1193
 0 0 -0
 0 0 0
 10191.4926 7882.757996 477290.1286
 8297.87634 8297.876212 477319.7689
 5246.295295 8855.301661 477353.0468
 1793.642187 9140.410507 477373.1319
 -1793.642206 9140.410397 477373.1319
 -5246.295311 8855.301754 477353.0468
 -8297.87636 8297.87615 477319.7689
 -10191.49262 7882.75802 477290.1286
 0 0 -0
 13111.95814 3247.396765 477272.8803
 11307.54372 4634.394537 477307.5876
 8855.301817 5246.295145 477353.0468
 5621.177134 5621.17701 477397.8174
 1924.744259 5803.111121 477424.8533
 -1924.744276 5803.111251 477424.8533
 -5621.177155 5621.176896 477397.8174
 -8855.301833 5246.295227 477353.0468
 -11307.54374 4634.394492 477307.5876
 -13111.95816 3247.396776 477272.8803
 13210.98514 1260.207402 477279.5334
 11691.27694 1579.671063 477318.2272
 9140.410627 1793.642053 477373.1319
 5803.111279 1924.744109 477424.8533
 1987.503958 1987.503828 477455.7267
 -1987.503978 1987.503698 477455.7267
 -5803.111295 1924.744224 477424.8533
 -9140.410648 1793.641967 477373.1319
 -11691.27695 1579.671115 477318.2272
 -13210.98516 1260.207385 477279.5334
 13210.98513 -1260.207696 477279.5334
 11691.27698 -1579.671363 477318.2272
 9140.410556 -1793.642346 477373.1319
 5803.111374 -1924.744416 477424.8533
 1987.50385 -1987.50412 477455.7267
 -1987.503867 -1987.504007 477455.7267
 -5803.111395 -1924.744516 477424.8533
 -9140.410572 -1793.64227 477373.1319
 -11691.277 -1579.671409 477318.2272
 -13210.98515 -1260.207682 477279.5334
 13111.95816 -3247.39706 477272.8803
 11307.54369 -4634.394827 477307.5876
 8855.301879 -5246.295456 477353.0468
 5621.177052 -5621.17729 477397.8174
 1924.744355 -5803.111443 477424.8533
 -1924.744374 -5803.111528 477424.8533
 -5621.177069 -5621.177214 477397.8174
 -8855.301899 -5246.295513 477353.0468
 -11307.5437 -4634.394795 477307.5876
 -13111.95817 -3247.397069 477272.8803
 0 0 0
 10191.49262 -7882.758298 477290.1286
 8297.876301 -8297.876495 477319.7689
 5246.295357 -8855.301981 477353.0468
 1793.642114 -9140.410779 477373.1319
 -1793.642132 -9140.410723 477373.1319
 -5246.295376 -8855.30203 477353.0468
 -8297.876318 -8297.876461 477319.7689
 -10191.49264 -7882.758313 477290.1286
 0 0 -0
 0 0 0
 9719.123049 -9719.123208 477266.1193
 7882.758158 -10191.49276 477290.1286
 4634.394638 -11307.54387 477307.5876
 1579.67125 -11691.2771 477318.2272
 -1579.671268 -11691.27713 477318.2272
 -4634.394655 -11307.54385 477307.5876
 -7882.758176 -10191.49277 477290.1286
 -9719.123066 -9719.123204 477266.1193
 0 0 -0
 0 0 0
 0 0 0
 0 0 0
 3247.396914 -13111.9583 477272.8803
 1260.207526 -13210.9853 477279.5334
 -1260.207544 -13210.98529 477279.5334
 -3247.396931 -13111.95831 477272.8803
 0 0 -0
 0 0 -0
 0 0 -0
 0 0 0
 0 0 0
 0 0 0
 2408.949698 9767.948399 477357.9951
 934.765184 9838.687974 477361.7053
 -934.7651997 9838.687996 477361.7053
 -2408.949713 9767.948385 477357.9951
 0 0 -0
 0 0 -0
 0 0 -0
 0 0 0
 7242.130857 7242.130725 477354.1394
 5869.761586 7587.329457 477367.6252
 3446.157047 8418.415637 477377.3409
 1174.020385 8704.107248 477383.2124
 -1174.020401 8704.107182 477383.2124
 -3446.157062 8418.415689 477377.3409
 -5869.761603 7587.329432 477367.6252
 -7242.130872 7242.130733 477354.1394
 0 0 -0
 0 0 0
 7587.329593 5869.761449 477367.6252
 6176.924394 6176.924266 477384.0828
 3905.052006 6594.106683 477402.4923
 1335.180166 6808.735411 477413.5835
 -1335.180181 6808.735512 477413.5835
 -3905.052023 6594.106598 477402.4923
 -6176.924408 6176.924322 477384.0828
 -7587.329609 5869.761427 477367.6252
 0 0 -0
 9767.948534 2408.949562 477357.9951
 8418.41577 3446.156922 477377.3409
 6594.106827 3905.051856 477402.4923
 4188.391465 4188.391347 477427.2573
 1434.840201 4326.917709 477442.2377
 -1434.840218 4326.91759 477442.2377
 -4188.391479 4188.39145 477427.2573
 -6594.106844 3905.051782 477402.4923
 -8418.415784 3446.156962 477377.3409
 -9767.94855 2408.949552 477357.9951
 9838.688109 934.7650546 477361.7053
 8704.107387 1174.020235 477383.2124
 6808.735539 1335.180053 477413.5835
 4326.917865 1434.840036 477442.2377
 1482.939104 1482.938999 477459.3942
 -1482.939119 1482.939115 477459.3942
 -4326.917883 1434.839934 477442.2377
 -6808.735552 1335.18013 477413.5835
 -8704.107404 1174.020189 477383.2124
 -9838.688124 934.7650686 477361.7053
 9838.688133 -934.7653406 477361.7053
 8704.107316 -1174.020519 477383.2124
 6808.735658 -1335.180346 477413.5835
 4326.917708 -1434.840317 477442.2377
 1482.939283 -1482.939297 477459.3942
 -1482.9393 -1482.939396 477459.3942
 -4326.917722 -1434.84023 477442.2377
 -6808.735676 -1335.180413 477413.5835
 -8704.10733 -1174.020479 477383.2124
 -9838.688149 -934.7653536 477361.7053
 9767.948523 -2408.949845 477357.9951
 8418.415829 -3446.157214 477377.3409
 6594.106727 -3905.052131 477402.4923
 4188.391604 -4188.391655 477427.2573
 1434.840043 -4326.917976 477442.2377
 -1434.840058 -4326.917902 477442.2377
 -4188.391621 -4188.391719 477427.2573
 -6594.10674 -3905.052083 477402.4923
 -8418.415846 -3446.157243 477377.3409
 -9767.948538 -2408.949838 477357.995
 0 0 0
 7587.329568 -5869.761731 477367.6252
 6176.924465 -6176.924567 477384.0828
 3905.051906 -6594.106949 477402.4923
 1335.180287 -6808.735727 477413.5835
 -1335.180303 -6808.735774 477413.5835
 -3905.05192 -6594.106909 477402.4923
 -6176.924482 -6176.924595 477384.0828
 -7587.329582 -5869.761719 477367.6252
 0 0 -0
 0 0 0
 7242.130873 -7242.131014 477354.1394
 5869.761561 -7587.329736 477367.6252
 3446.157106 -8418.415941 477377.3409
 1174.020313 -8704.107516 477383.2124
 -1174.020328 -8704.107492 477383.2124
 -3446.157122 -8418.415961 477377.3409
 -5869.761576 -7587.329726 477367.6252
 -7242.130888 -7242.131018 477354.1394
 0 0 -0
 0 0 0
 0 0 0
 0 0 0
 2408.949686 -9767.948683 477357.995
 934.765208 -9838.688269 477361.7053
 -934.7652232 -9838.688276 477361.7053
 -2408.949701 -9767.948679 477357.995
 0 0 -0
 0 0 -0
 0 0 -0
 0 0 0
 0 0 0
 0 0 0
 1746.972442 7103.666579 477407.9569
 677.7879726 7152.849815 477409.9377
 -677.7879857 7152.849796 477409.9377
 -1746.972455 7103.66659 477407.9569
 0 0 -0
 0 0 -0
 0 0 -0
 0 0 0
 5267.990328 5267.990195 477405.8733
 4266.114865 5513.661347 477413.1032
 2501.571798 6116.121924 477418.272
 851.7345855 6322.283013 477421.3805
 -851.7345984 6322.283071 477421.3805
 -2501.571811 6116.121879 477418.2721
 -4266.114878 5513.661368 477413.1032
 -5267.990341 5267.990188 477405.8733
 0 0 -0
 0 0 0
 5513.661469 4266.114744 477413.1032
 4485.976803 4485.976648 477421.8505
 2834.326373 4787.517759 477431.5842
 968.8123058 4942.866569 477437.4313
 -968.8123191 4942.866483 477437.4313
 -2834.326385 4787.517832 477431.5842
 -4485.976817 4485.976601 477421.8505
 -5513.661482 4266.114763 477413.1032
 0 0 -0
 7103.666708 1746.972317 477407.9569
 6116.122073 2501.571644 477418.272
 4787.51786 2834.326279 477431.5842
 3040.005139 3040.004957 477444.6439
 1041.359208 3140.787 477452.5341
 -1041.359221 3140.787101 477452.5341
 -3040.005153 3040.00487 477444.6439
 -4787.517872 2834.326341 477431.5842
 -6116.122086 2501.571609 477418.272
 -7103.666721 1746.972325 477407.9569
 7152.849954 677.787831 477409.9377
 6322.283128 851.7344846 477421.3805
 4942.866739 968.8121231 477437.4313
 3140.787079 1041.359139 477452.5341
 1076.47041 1076.470206 477461.573
 -1076.470424 1076.470109 477461.573
 -3140.787091 1041.359224 477452.5341
 -4942.866753 968.8120593 477437.4313
 -6322.283139 851.7345219 477421.3805
 -7152.849967 677.7878191 477409.9377
 7152.849925 -677.7881071 477409.9377
 6322.283224 -851.734765 477421.3805
 4942.866581 -968.8123972 477437.4313
 3140.787288 -1041.359425 477452.5341
 1076.470173 -1076.470479 477461.573
 -1076.470186 -1076.470397 477461.573
 -3140.787302 -1041.359497 477452.5341
 -4942.866592 -968.8123434 477437.4313
 -6322.283238 -851.7347977 477421.3805
 -7152.849937 -677.7880971 477409.9377
 7103.666729 -1746.972594 477407.9569
 6116.121998 -2501.571915 477418.272
 4787.517996 -2834.326569 477431.5842
 3040.004957 -3040.00522 477444.6439
 1041.359418 -3140.787301 477452.5341
 -1041.359432 -3140.78736 477452.5341
 -3040.004969 -3040.005168 477444.6439
 -4787.518011 -2834.326608 477431.5842
 -6116.12201 -2501.571894 477418.272
 -7103.666742 -1746.9726 477407.9569
 0 0 0
 5513.661511 -4266.115027 477413.1032
 4485.976714 -4485.976915 477421.8505
 2834.32651 -4787.518059 477431.5842
 968.8121469 -4942.866825 477437.4313
 -968.8121592 -4942.866788 477437.4313
 -2834.326524 -4787.51809 477431.5842
 -4485.976725 -4485.976893 477421.8505
 -5513.661524 -4266.115037 477413.1032
 0 0 -0
 0 0 0
 5267.990321 -5267.990471 477405.8733
 4266.114907 -5513.661632 477413.1032
 2501.571723 -6116.122189 477418.272
 851.7346825 -6322.283313 477421.3805
 -851.7346953 -6322.283331 477421.3805
 -2501.571735 -6116.122174 477418.272
 -4266.11492 -5513.66164 477413.1032
 -5267.990333 -5267.990469 477405.8733
 0 0 -0
 0 0 0
 0 0 0
 0 0 0
 1746.972463 -7103.666864 477407.9569
 677.7879433 -7152.850088 477409.9377
 -677.7879557 -7152.850083 477409.9377
 -1746.972475 -7103.666867 477407.9569
 0 0 -0
 0 0 -0
 0 0 -0
 0 0 0
 0 0 0
 0 0 0
 1224.628451 4988.938635 477436.3644
 475.0501495 5022.070353 477437.3513
 -475.0501598 5022.070369 477437.3513
 -1224.628461 4988.938625 477436.3644
 0 0 -0
 0 0 -0
 0 0 -0
 0 0 0
 3700.482198 3700.482074 477435.3193
 2994.312326 3869.556947 477438.93
 1754.028446 4290.996601 477441.4959
 596.9014871 4434.382749 477443.0346
 -596.9014975 4434.3827 477443.0346
 -1754.028456 4290.996639 477441.4959
 -2994.312336 3869.556928 477438.93
 -3700.482208 3700.48208 477435.3193
 0 0 -0
 0 0 0
 3869.557088 2994.312183 477438.93
 3145.977429 3145.977331 477443.2709
 1986.193999 3355.662485 477448.0766
 678.6342869 3463.60877 477450.9547
 -678.6342969 3463.608844 477450.9547
 -1986.19401 3355.662424 477448.0766
 -3145.977439 3145.977372 477443.2709
 -3869.557098 2994.312167 477438.93
 0 0 -0
 4988.938771 1224.628315 477436.3644
 4290.996708 1754.028347 477441.4959
 3355.662661 1986.193818 477448.0766
 2129.402624 2129.402559 477454.5032
 729.2034507 2199.545248 477458.3768
 -729.2034613 2199.545163 477458.3768
 -2129.402633 2129.402632 477454.5032
 -3355.662672 1986.193765 477448.0766
 -4290.996717 1754.028375 477441.4959
 -4988.938781 1224.628308 477436.3644
 5022.070475 475.050033 477437.3513
 4434.382909 596.9013173 477443.0346
 3463.60885 678.6342205 477450.9547
 2199.545453 729.2032378 477458.3768
 753.6742461 753.6742056 477462.8103
 -753.6742558 753.674288 477462.8103
 -2199.545464 729.2031659 477458.3768
 -3463.608859 678.6342737 477450.9547
 -4434.38292 596.9012858 477443.0346
 -5022.070485 475.0500424 477437.3513
 5022.07051 -475.0503034 477437.3513
 4434.382803 -596.9015859 477443.0346
 3463.609027 -678.6344962 477450.9547
 2199.545222 -729.2035047 477458.3768
 753.6745093 -753.6744852 477462.8103
 -753.6745198 -753.6745543 477462.8103
 -2199.545231 -729.2034444 477458.3768
 -3463.609038 -678.6345417 477450.9547
 -4434.382812 -596.9015592 477443.0346
 -5022.07052 -475.0503122 477437.3513
 4988.938753 -1224.628583 477436.3644
 4290.996794 -1754.028622 477441.4959
 3355.662512 -1986.19408 477448.0766
 2129.402828 -2129.402846 477454.5032
 729.2032185 -2199.545504 477458.3768
 -729.2032282 -2199.545454 477458.3768
 -2129.402839 -2129.40289 477454.5032
 -3355.662521 -1986.194048 477448.0766
 -4290.996805 -1754.028641 477441.4959
 -4988.938763 -1224.628579 477436.3644
 0 0 0
 3869.557049 -2994.312451 477438.93
 3145.977534 -3145.977614 477443.2709
 1986.19385 -3355.662741 477448.0766
 678.6344647 -3463.609064 477450.9547
 -678.6344748 -3463.609096 477450.9547
 -1986.193859 -3355.662714 477448.0766
 -3145.977545 -3145.977633 477443.2709
 -3869.557059 -2994.312443 477438.93
 0 0 -0
 0 0 0
 3700.482219 -3700.482348 477435.3193
 2994.312287 -3869.557212 477438.93
 1754.028533 -4290.996886 477441.4959
 596.9013809 -4434.383005 477443.0346
 -596.9013907 -4434.382989 477443.0346
 -1754.028543 -4290.996899 477441.4959
 -2994.312297 -3869.557206 477438.93
 -3700.482228 -3700.48235 477435.3193
 0 0 -0
 0 0 0
 0 0 0
 0 0 0
 1224.628433 -4988.938905 477436.3644
 475.0501844 -5022.070632 477437.3513
 -475.0501942 -5022.070637 477437.3513
 -1224.628442 -4988.938903 477436.3644
 0 0 -0
 0 0 -0
 0 0 -0
 0 0 0
 0 0 0
 0 0 0
 805.5171213 3285.448071 477452.0167
 312.4249263 3306.531024 477452.4485
 -312.4249338 3306.531009 477452.4485
 -805.5171285 3285.44808 477452.0167
 0 0 -0
 0 0 -0
 0 0 -0
 0 0 0
 2437.338411 2437.33828 477451.5578
 1970.912868 2546.840509 477453.1395
 1153.647607 2823.377633 477454.2585
 392.4264943 2916.962999 477454.9284
 -392.4265014 2916.963043 477454.9284
 -1153.647615 2823.377598 477454.2585
 -1970.912875 2546.840525 477453.1395
 -2437.338418 2437.338275 477451.5578
 0 0 -0
 0 0 0
 2546.840624 1970.912754 477453.1395
 2069.20916 2069.209002 477455.0325
 1305.482851 2205.947245 477457.1193
 445.8800997 2276.239368 477458.366
 -445.8801075 2276.239301 477458.366
 -1305.482858 2205.9473 477457.1193
 -2069.209169 2069.208965 477455.0325
 -2546.840631 1970.912768 477453.1395
 0 0 -0
 3285.448195 805.5170012 477452.0167
 2823.377784 1153.647451 477454.2585
 2205.947331 1305.48277 477457.1193
 1398.862978 1398.862787 477459.9016
 478.8623022 1444.534432 477461.5747
 -478.8623091 1444.534511 477461.5747
 -1398.862987 1398.862719 477459.9016
 -2205.947337 1305.482818 477457.1193
 -2823.377793 1153.647425 477454.2585
 -3285.448202 805.5170071 477452.0167
 3306.531162 312.4247863 477452.4485
 2916.963101 392.4264029 477454.9284
 2276.239547 445.8799109 477458.366
 1444.534493 478.862249 477461.5747
 494.8023018 494.8020874 477463.4872
 -494.8023096 494.8020094 477463.4872
 -1444.534499 478.8623167 477461.5747
 -2276.239555 445.8798604 477458.366
 -2916.963108 392.4264321 477454.9284
 -3306.53117 312.424777 477452.4485
 3306.531131 -312.4250502 477452.4485
 2916.963202 -392.4266696 477454.9284
 2276.239382 -445.8801739 477458.366
 1444.53471 -478.8625199 477461.5747
 494.8020557 -494.8023495 477463.4872
 -494.8020627 -494.8022817 477463.4872
 -1444.534718 -478.8625792 477461.5747
 -2276.239389 -445.8801299 477458.366
 -2916.963209 -392.426696 477454.9284
 -3306.531138 -312.4250422 477452.4485
 3285.448217 -805.5172654 477452.0167
 2823.377707 -1153.647713 477454.2585
 2205.947473 -1305.483044 477457.1193
 1398.862789 -1398.863043 477459.9016
 478.8625204 -1444.534713 477461.5747
 -478.8625276 -1444.534765 477461.5747
 -1398.862796 -1398.862998 477459.9016
 -2205.94748 -1305.483077 477457.1193
 -2823.377714 -1153.647694 477454.2585
 -3285.448224 -805.5172703 477452.0167
 0 0 0
 2546.840668 -1970.913023 477453.1395
 2069.209067 -2069.209261 477455.0325
 1305.482994 -2205.947524 477457.1193
 445.8799342 -2276.239619 477458.366
 -445.8799414 -2276.239584 477458.366
 -1305.483001 -2205.947554 477457.1193
 -2069.209074 -2069.20924 477455.0325
 -2546.840675 -1970.913032 477453.1395
 0 0 -0
 0 0 0
 2437.338403 -2437.338545 477451.5578
 1970.912912 -2546.840778 477453.1395
 1153.647529 -2823.377891 477454.2585
 392.4265955 -2916.963279 477454.9284
 -392.4266024 -2916.963298 477454.9284
 -1153.647536 -2823.377875 477454.2585
 -1970.912919 -2546.840786 477453.1395
 -2437.33841 -2437.338542 477451.5578
 0 0 -0
 0 0 0
 0 0 0
 0 0 0
 805.517143 -3285.448342 477452.0167
 312.4248956 -3306.531287 477452.4485
 -312.4249026 -3306.531282 477452.4485
 -805.5171498 -3285.448346 477452.0167
 0 0 -0
 0 0 -0
 0 0 -0
 0 0 0
 0 0 0
 0 0 0
 456.4580378 1863.045023 477460.147
 177.0205206 1874.714496 477460.2867
 -177.0205251 1874.71451 477460.2867
 -456.4580426 1863.045015 477460.147
 0 0 -0
 0 0 -0
 0 0 -0
 0 0 0
 1382.275786 1382.275663 477459.9982
 1117.235471 1443.645128 477460.5104
 653.6236859 1600.03986 477460.8716
 222.2741775 1652.757386 477461.0877
 -222.2741825 1652.757342 477461.0877
 -653.6236894 1600.039894 477460.8716
 -1117.235476 1443.645112 477460.5104
 -1382.27579 1382.275668 477459.9982
 0 0 -0
 0 0 0
 1443.645262 1117.235336 477460.5104