# OOMMF OVF 2.0
#
# Segment count: 1
#
# Begin: Segment
# Begin: Header
#
# Title: Oxs_MinDriver::Magnetization
# Desc: Oxs vector field output
# Desc:  MIF source file: F:/Bogdan/UNIC/2022/Master_degree/Samples/Cylinder11_7.mif
# Desc:  Iteration: 863, State id: 4216
# Desc:  Stage: 3, Stage iteration: 24
# Desc:  Stage simulation time: 0 s
# Desc:  Total simulation time: -2 s
# meshunit: m
# meshtype: rectangular
# xbase: -2.5000000000000001e-09
# ybase: -2.5000000000000001e-09
# zbase: -6.4999999999999995e-09
# xnodes: 6
# ynodes: 6
# znodes: 14
# xstepsize: 1.0000000000000001e-09
# ystepsize: 1.0000000000000001e-09
# zstepsize: 1.0000000000000001e-09
# xmin: -3e-09
# ymin: -3e-09
# zmin: -6.9999999999999998e-09
# xmax: 3.0000000000000008e-09
# ymax: 3.0000000000000008e-09
# zmax: 7.0000000000000015e-09
# valuedim: 3
# valuelabels: Magnetization_x Magnetization_y Magnetization_z
# valueunits: A/m A/m A/m
#
# End: Header
#
# Begin: Data Text
 0 0 0
 2008.143235 3793.234394 477444.7089
 760.2009771 3878.411959 477447.6425
 -760.1994289 3878.411956 477447.6425
 -2008.141691 3793.234393 477444.7089
 0 0 -0
 3793.228333 2008.149295 477444.7089
 2479.130542 2479.136626 477451.1274
 865.8796075 2615.556541 477456.0508
 -865.8780618 2615.55655 477456.0508
 -2479.12899 2479.136617 477451.1274
 -3793.226791 2008.149294 477444.7089
 3878.405888 760.2070604 477447.6425
 2615.550478 865.885671 477456.0508
 912.6284911 912.6346057 477462.2556
 -912.6269377 912.634584 477462.2556
 -2615.548938 865.8856832 477456.0508
 -3878.404339 760.2070537 477447.6425
 3878.405886 -760.1933524 477447.6425
 2615.550453 -865.8719508 477456.0508
 912.6285236 -912.6208847 477462.2556
 -912.6269779 -912.6208577 477462.2556
 -2615.548899 -865.8719696 477456.0508
 -3878.404345 -760.1933476 477447.6426
 3793.228309 -2008.135604 477444.709
 2479.130543 -2479.122925 477451.1275
 865.8795795 -2615.542826 477456.0508
 -865.8780287 -2615.542849 477456.0508
 -2479.129001 -2479.122911 477451.1275
 -3793.226763 -2008.135608 477444.709
 0 0 0
 2008.143211 -3793.220703 477444.709
 760.2009768 -3878.398276 477447.6426
 -760.1994301 -3878.398267 477447.6426
 -2008.141665 -3793.220706 477444.709
 0 0 -0
 0 0 0
 1602.797737 3034.692953 477451.6656
 623.8099783 3105.904428 477453.4904
 -623.8085163 3105.904435 477453.4904
 -1602.796271 3034.692946 477451.6656
 0 0 -0
 3034.686877 1602.803812 477451.6656
 2026.417505 2026.423554 477455.3995
 720.4721393 2162.070011 477458.5612
 -720.4706666 2162.069979 477458.5612
 -2026.416056 2026.423571 477455.3995
 -3034.68541 1602.803804 477451.6656
 3105.898367 623.8160434 477453.4905
 2162.063885 720.4782785 477458.5612
 766.6859942 766.6920097 477462.7689
 -766.6845386 766.6920674 477462.7689
 -2162.0624 720.4782386 477458.5612
 -3105.896916 623.8160532 477453.4905
 3105.898343 -623.8024054 477453.4905
 2162.063933 -720.4646379 477458.5612
 766.6859019 -766.6783536 477462.7689
 -766.6844259 -766.6784265 477462.7689
 -2162.062488 -720.4645906 477458.5613
 -3105.896871 -623.8024216 477453.4905
 3034.686863 -1602.790195 477451.6657
 2026.417456 -2026.409915 477455.3996
 720.4721967 -2162.056389 477458.5613
 -720.4707376 -2162.056331 477458.5613
 -2026.41598 -2026.409953 477455.3996
 -3034.685405 -1602.790185 477451.6657
 0 0 0
 1602.797723 -3034.679335 477451.6657
 623.8099486 -3105.890807 477453.4905
 -623.8084822 -3105.890827 477453.4905
 -1602.796264 -3034.679323 477451.6657
 0 0 -0
 0 0 0
 1172.614634 2217.257981 477457.4118
 461.292626 2268.581711 477458.3878
 -461.2913157 2268.581696 477458.3878
 -1172.613332 2217.257986 477457.4118
 0 0 -0
 2217.251891 1172.620721 477457.4118
 1494.078239 1494.084389 477459.3247
 536.5331125 1602.386036 477461.0097
 -536.5318124 1602.386084 477461.0097
 -1494.076916 1494.084356 477459.3247
 -2217.250591 1172.620726 477457.4118
 2268.575587 461.298763 477458.3878
 1602.379985 536.5391566 477461.0097
 574.4075711 574.413795 477463.309
 -574.4062492 574.4137119 477463.309
 -1602.378704 536.53921 477461.0097
 -2268.574269 461.2987428 477458.3878
 2268.575599 -461.2852212 477458.3878
 1602.379907 -536.5256057 477461.0097
 574.4076934 -574.4002512 477463.309
 -574.4063978 -574.4001559 477463.309
 -1602.378572 -536.5256705 477461.0097
 -2268.574307 -461.2852015 477458.3878
 2217.251852 -1172.607192 477457.4118
 1494.078274 -1494.07086 477459.3247
 536.5330194 -1602.372486 477461.0097
 -536.5317016 -1602.372559 477461.0098
 -1494.076985 -1494.070812 477459.3247
 -2217.250539 -1172.607204 477457.4118
 0 0 0
 1172.614594 -2217.244446 477457.4118
 461.2926459 -2268.568192 477458.3878
 -461.2913406 -2268.568166 477458.3878
 -1172.613284 -2217.244459 477457.4118
 0 0 -0
 0 0 0
 806.4438605 1523.249778 477460.8891
 318.4214312 1557.012045 477461.3551
 -318.4203452 1557.012063 477461.3551
 -806.4427712 1523.249765 477460.8891
 0 0 -0
 1523.243599 806.4500368 477460.8891
 1029.244794 1029.250915 477461.7813
 371.0641564 1105.282369 477462.5765
 -371.063062 1105.282311 477462.5765
 -1029.24372 1029.250951 477461.7813
 -1523.242508 806.450023 477460.8891
 1557.005898 318.4275806 477461.3551
 1105.276122 371.0704162 477462.5765
 398.0879141 398.0939824 477463.6681
 -398.0868369 398.0940695 477463.6681
 -1105.275012 371.0703547 477462.5765
 -1557.004823 318.4275982 477461.3551
 1557.005862 -318.4141292 477461.3551
 1105.276199 -371.0569649 477462.5765
 398.0877748 -398.0805269 477463.6681
 -398.0866735 -398.0806193 477463.6681
 -1105.275137 -371.0569027 477462.5765
 -1557.004764 -318.4141509 477461.3551
 1523.243586 -806.4366003 477460.8892
 1029.244719 -1029.237467 477461.7813
 371.0642495 -1105.268929 477462.5765
 -371.0631706 -1105.268862 477462.5765
 -1029.243613 -1029.237511 477461.7813
 -1523.242506 -806.4365882 477460.8892
 0 0 0
 806.4438494 -1523.236335 477460.8892
 318.4213861 -1556.998608 477461.3551
 -318.4202949 -1556.99863 477461.3551
 -806.4427672 -1523.236322 477460.8892
 0 0 -0
 0 0 0
 515.6872695 973.6333938 477462.7288
 203.8633743 994.2185562 477462.9214
 -203.8625579 994.2185358 477462.9214
 -515.6864559 973.6334021 477462.7288
 0 0 -0
 973.6271433 515.6935153 477462.7288
 658.1149474 658.1212656 477463.0929
 237.542647 706.6174815 477463.418
 -237.5418341 706.6175361 477463.418
 -658.1141253 658.1212256 477463.0929
 -973.626331 515.6935228 477462.7288
 994.2122655 203.8696741 477462.9214
 706.6112776 237.5488489 477463.418
 254.8950091 254.9013889 477463.8639
 -254.8941861 254.901314 477463.8639
 -706.6104765 237.5489006 477463.418
 -994.2114435 203.8696536 477462.9214
 994.21228 -203.8562993 477462.9214
 706.6111898 -237.5354753 477463.418
 254.8951358 -254.8880131 477463.8639
 -254.8943286 -254.8879432 477463.8639
 -706.6103561 -237.5355263 477463.418
 -994.211474 -203.856283 477462.9214
 973.6270991 -515.6801535 477462.7288
 658.1149892 -658.1078953 477463.0929
 237.5425449 -706.604117 477463.4181
 -237.5417215 -706.6041644 477463.4181
 -658.1141871 -658.1078627 477463.0929
 -973.6262788 -515.6801628 477462.7288
 0 0 0
 515.6872235 -973.6200238 477462.7288
 203.8633974 -994.2051937 477462.9214
 -203.8625836 -994.205178 477462.9214
 -515.6864046 -973.6200319 477462.7288
 0 0 -0
 0 0 0
 284.9181771 537.8884007 477463.612
 112.6739068 548.8506181 477463.6713
 -112.6734015 548.8506332 477463.6713
 -284.9176721 537.88839 477463.612
 0 0 -0
 537.8819982 284.9245753 477463.612
 363.4740886 363.4804474 477463.7233
 131.2176093 390.0840172 477463.8226
 -131.2171031 390.0839742 477463.8226
 -363.4735859 363.4804766 477463.7233
 -537.8814921 284.9245641 477463.612
 548.8442398 112.6802903 477463.6713
 390.0775645 131.224066 477463.8226
 140.7564418 140.7627755 477463.9585
 -140.7559393 140.7628262 477463.9585
 -390.0770529 131.2240254 477463.8226
 -548.8437386 112.680303 477463.6713
 548.8442087 -112.6669702 477463.6713
 390.0776188 -131.2107444 477463.8226
 140.7563462 -140.7494602 477463.9585
 -140.7558361 -140.7495047 477463.9585
 -390.0771226 -131.210711 477463.8226
 -548.8436996 -112.6669843 477463.6713
 537.8819802 -284.9112658 477463.612
 363.4740255 -363.4671352 477463.7233
 131.2176729 -390.0706977 477463.8226
 -131.217171 -390.0706691 477463.8226
 -363.4735131 -363.4671574 477463.7233
 -537.8814776 -284.9112599 477463.612
 0 0 0
 284.9181606 -537.8750814 477463.612
 112.6738702 -548.8373128 477463.6713
 -112.6733632 -548.8373222 477463.6713
 -284.9176574 -537.8750757 477463.612
 0 0 -0
 0 0 0
 90.89521667 171.6046706 477463.9605
 35.9481289 175.033997 477463.9666
 -35.9479581 175.0339859 477463.9666
 -90.89504572 171.6046759 477463.9605
 0 0 -0
 171.5981305 90.90175221 477463.9605
 115.927865 115.9344319 477463.9719
 41.8492532 124.3816083 477463.982
 -41.84908204 124.3816357 477463.982
 -115.9276939 115.9344089 477463.9719
 -171.5979598 90.90175702 477463.9605
 175.0274388 35.95469226 477463.9666
 124.375079 41.85578724 477463.982
 44.87928565 44.8858756 477463.9958
 -44.87911389 44.88584265 477463.9958
 -124.3749096 41.85581367 477463.982
 -175.027267 35.95467951 477463.9666
 175.0274346 -35.94139906 477463.9666
 124.3750497 -41.84249631 477463.982
 44.87931695 -44.87258403 477463.9958
 -44.87914701 -44.87255521 477463.9958
 -124.374876 -41.84252259 477463.982
 -175.0272649 -35.94139012 477463.9666
 171.5980962 -90.88847105 477463.9605
 115.9278635 -115.9211428 477463.9719
 41.84922085 -124.3683255 477463.982
 -41.8490483 -124.3683472 477463.982
 -115.9276945 -115.9211261 477463.9719
 -171.5979243 -90.88847777 477463.9605
 0 0 0
 90.89518195 -171.59138 477463.9605
 35.94812687 -175.0207148 477463.9666
 -35.94795602 -175.0207073 477463.9666
 -90.89501014 -171.5913853 477463.9605
 0 0 -0
 0 0 0
 -90.89518185 -171.59138 477463.9605
 -35.94812705 -175.0207148 477463.9666
 35.9479562 -175.0207073 477463.9666
 90.89501003 -171.5913854 477463.9605
 0 0 -0
 -171.5980961 -90.88847104 477463.9605
 -115.9278638 -115.9211428 477463.9719
 -41.84922032 -124.3683254 477463.982
 41.84904776 -124.3683473 477463.982
 115.9276949 -115.9211261 477463.9719
 171.5979242 -90.88847778 477463.9605
 -175.0274348 -35.94139908 477463.9666
 -124.3750491 -41.84249624 477463.982
 -44.87931769 -44.87258413 477463.9958
 44.87914775 -44.87255512 477463.9958
 124.3748755 -41.84252266 477463.982
 175.0272651 -35.9413901 477463.9666
 -175.0274386 35.95469228 477463.9666
 -124.3750796 41.85578718 477463.982
 -44.87928491 44.88587569 477463.9958
 44.87911315 44.88584256 477463.9958
 124.3749101 41.85581373 477463.982
 175.0272668 35.95467949 477463.9666
 -171.5981306 90.9017522 477463.9605
 -115.9278646 115.9344319 477463.9719
 -41.84925374 124.3816083 477463.982
 41.84908257 124.3816358 477463.982
 115.9276935 115.9344088 477463.9719
 171.5979599 90.90175703 477463.9605
 0 0 0
 -90.89521677 171.6046706 477463.9605
 -35.94812871 175.0339971 477463.9666
 35.94795791 175.0339859 477463.9666
 90.89504582 171.6046759 477463.9605
 0 0 -0
 0 0 0
 -284.9181607 -537.8750814 477463.612
 -112.6738701 -548.8373128 477463.6713
 112.6733631 -548.8373223 477463.6713
 284.9176575 -537.8750756 477463.612
 0 0 -0
 -537.8819802 -284.9112658 477463.612
 -363.4740253 -363.467135 477463.7233
 -131.2176732 -390.0706979 477463.8226
 131.2171713 -390.0706689 477463.8226
 363.4735129 -363.4671576 477463.7233
 537.8814777 -284.9112599 477463.612
 -548.8442086 -112.6669701 477463.6713
 -390.0776191 -131.2107446 477463.8226
 -140.7563458 -140.7494599 477463.9585
 140.7558357 -140.7495049 477463.9585
 390.0771229 -131.2107108 477463.8226
 548.8436994 -112.6669844 477463.6713
 -548.8442399 112.6802903 477463.6713
 -390.0775642 131.2240662 477463.8226
 -140.7564422 140.7627752 477463.9585
 140.7559397 140.7628265 477463.9585
 390.0770526 131.2240253 477463.8226
 548.8437387 112.680303 477463.6713
 -537.8819981 284.9245753 477463.612
 -363.4740888 363.4804473 477463.7233
 -131.217609 390.0840173 477463.8226
 131.2171028 390.083974 477463.8226
 363.4735861 363.4804767 477463.7233
 537.881492 284.924564 477463.612
 0 0 0
 -284.918177 537.8884008 477463.612
 -112.6739069 548.850618 477463.6713
 112.6734016 548.8506333 477463.6713
 284.917672 537.88839 477463.612
 0 0 -0
 0 0 0
 -515.6872235 -973.6200237 477462.7288
 -203.8633974 -994.2051938 477462.9214
 203.8625836 -994.2051779 477462.9214
 515.6864046 -973.620032 477462.7288
 0 0 -0
 -973.6270991 -515.6801534 477462.7288
 -658.1149891 -658.1078955 477463.0929
 -237.542545 -706.6041167 477463.4181
 237.5417215 -706.6041647 477463.4181
 658.1141871 -658.1078625 477463.0929
 973.6262788 -515.6801628 477462.7288
 -994.21228 -203.8562994 477462.9214
 -706.6111899 -237.535475 477463.418
 -254.8951357 -254.8880135 477463.8639
 254.8943285 -254.8879429 477463.8639
 706.6103562 -237.5355266 477463.418
 994.211474 -203.8562829 477462.9214
 -994.2122655 203.8696742 477462.9214
 -706.6112776 237.5488487 477463.418
 -254.8950092 254.9013893 477463.8639
 254.8941862 254.9013136 477463.8639
 706.6104765 237.5489008 477463.418
 994.2114436 203.8696535 477462.9214
 -973.6271433 515.6935152 477462.7288
 -658.1149475 658.1212658 477463.0929
 -237.5426469 706.6174812 477463.418
 237.5418341 706.6175364 477463.418
 658.1141254 658.1212254 477463.0929
 973.626331 515.6935228 477462.7288
 0 0 0
 -515.6872694 973.6333937 477462.7288
 -203.8633743 994.2185563 477462.9214
 203.8625579 994.2185357 477462.9214
 515.6864558 973.6334022 477462.7288
 0 0 -0
 0 0 0
 -806.4438493 -1523.236335 477460.8892
 -318.4213863 -1556.998608 477461.3551
 318.420295 -1556.99863 477461.3551
 806.4427671 -1523.236322 477460.8892
 0 0 -0
 -1523.243586 -806.4366003 477460.8892
 -1029.244719 -1029.237467 477461.7813
 -371.0642491 -1105.268929 477462.5765
 371.0631702 -1105.268862 477462.5765
 1029.243614 -1029.237512 477461.7813
 1523.242506 -806.4365882 477460.8892
 -1557.005862 -318.414129 477461.3551
 -1105.276198 -371.0569652 477462.5765
 -398.0877754 -398.0805265 477463.6681
 398.086674 -398.0806197 477463.6681
 1105.275136 -371.0569024 477462.5765
 1557.004764 -318.414151 477461.3551
 -1557.005898 318.4275805 477461.3551
 -1105.276123 371.0704165 477462.5765
 -398.0879136 398.093982 477463.6681
 398.0868363 398.09407 477463.6681
 1105.275012 371.0703544 477462.5765
 1557.004823 318.4275983 477461.3551
 -1523.243599 806.4500369 477460.8891
 -1029.244794 1029.250915 477461.7813
 -371.0641568 1105.28237 477462.5765
 371.0630624 1105.282311 477462.5765
 1029.24372 1029.250952 477461.7813
 1523.242508 806.450023 477460.8891
 0 0 0
 -806.4438606 1523.249778 477460.8891
 -318.4214311 1557.012045 477461.3551
 318.420345 1557.012063 477461.3551
 806.4427713 1523.249765 477460.8891
 0 0 -0
 0 0 0
 -1172.614594 -2217.244446 477457.4118
 -461.2926457 -2268.568192 477458.3878
 461.2913404 -2268.568166 477458.3878
 1172.613284 -2217.244459 477457.4118
 0 0 -0
 -2217.251852 -1172.607192 477457.4118
 -1494.078274 -1494.07086 477459.3247
 -536.53302 -1602.372486 477461.0097
 536.5317022 -1602.37256 477461.0098
 1494.076984 -1494.070812 477459.3247
 2217.250539 -1172.607204 477457.4118
 -2268.575599 -461.2852213 477458.3878
 -1602.379907 -536.5256054 477461.0097
 -574.4076927 -574.4002516 477463.309
 574.406397 -574.4001555 477463.309
 1602.378573 -536.5256707 477461.0097
 2268.574307 -461.2852014 477458.3878
 -2268.575588 461.2987632 477458.3878
 -1602.379984 536.5391563 477461.0097
 -574.4075719 574.4137954 477463.309
 574.40625 574.4137115 477463.309
 1602.378703 536.5392103 477461.0097
 2268.574269 461.2987427 477458.3878
 -2217.25189 1172.620721 477457.4118
 -1494.07824 1494.08439 477459.3247
 -536.533112 1602.386036 477461.0097
 536.5318119 1602.386084 477461.0097
 1494.076916 1494.084356 477459.3247
 2217.250591 1172.620726 477457.4118
 0 0 0
 -1172.614634 2217.257981 477457.4118
 -461.2926262 2268.581711 477458.3878
 461.2913159 2268.581695 477458.3878
 1172.613332 2217.257986 477457.4118
 0 0 -0
 0 0 0
 -1602.797723 -3034.679335 477451.6657
 -623.8099487 -3105.890806 477453.4905
 623.8084824 -3105.890827 477453.4905
 1602.796264 -3034.679323 477451.6657
 0 0 -0
 -3034.686863 -1602.790195 477451.6657
 -2026.417457 -2026.409915 477455.3996
 -720.4721962 -2162.056389 477458.5613
 720.4707371 -2162.05633 477458.5613
 2026.415981 -2026.409953 477455.3996
 3034.685405 -1602.790185 477451.6657
 -3105.898343 -623.8024053 477453.4905
 -2162.063932 -720.4646381 477458.5612
 -766.6859026 -766.6783534 477462.7689
 766.6844265 -766.6784268 477462.7689
 2162.062488 -720.4645904 477458.5613
 3105.896872 -623.8024216 477453.4905
 -3105.898367 623.8160433 477453.4905
 -2162.063886 720.4782787 477458.5612
 -766.6859935 766.6920094 477462.7689
 766.684538 766.6920677 477462.7689
 2162.062401 720.4782384 477458.5612
 3105.896916 623.8160533 477453.4905
 -3034.686877 1602.803812 477451.6656
 -2026.417505 2026.423554 477455.3995
 -720.4721398 2162.070011 477458.5612
 720.4706671 2162.069979 477458.5612
 2026.416055 2026.423571 477455.3995
 3034.68541 1602.803804 477451.6656
 0 0 0
 -1602.797737 3034.692953 477451.6656
 -623.8099782 3105.904428 477453.4904
 623.8085161 3105.904435 477453.4904
 1602.796271 3034.692946 477451.6656
 0 0 -0
 0 0 0
 -2008.143211 -3793.220703 477444.709
 -760.2009768 -3878.398276 477447.6426
 760.1994301 -3878.398267 477447.6426
 2008.141665 -3793.220706 477444.709
 0 0 -0
 -3793.228309 -2008.135604 477444.709
 -2479.130543 -2479.122925 477451.1275
 -865.8795797 -2615.542826 477456.0508
 865.8780289 -2615.542849 477456.0508
 2479.129001 -2479.122911 477451.1275
 3793.226763 -2008.135608 477444.709
 -3878.405885 -760.1933524 477447.6425
 -2615.550453 -865.8719507 477456.0508
 -912.6285233 -912.6208848 477462.2556
 912.6269776 -912.6208576 477462.2556
 2615.548899 -865.8719697 477456.0508
 3878.404345 -760.1933476 477447.6426
 -3878.405888 760.2070604 477447.6425
 -2615.550477 865.8856709 477456.0508
 -912.6284914 912.6346058 477462.2556
 912.626938 912.6345839 477462.2556
 2615.548938 865.8856833 477456.0508
 3878.404339 760.2070536 477447.6425
 -3793.228333 2008.149295 477444.7089
 -2479.130542 2479.136626 477451.1274
 -865.8796073 2615.556541 477456.0508
 865.8780616 2615.55655 477456.0508
 2479.12899 2479.136617 477451.1274
 3793.226791 2008.149294 477444.7089
 0 0 0
 -2008.143235 3793.234394 477444.7089
 -760.2009772 3878.411959 477447.6425
 760.1994289 3878.411956 477447.6425
 2008.141691 3793.234393 477444.7089
 0 0 -0
# End: Data Text
# End: Segment
