# OOMMF OVF 2.0
#
# Segment count: 1
#
# Begin: Segment
# Begin: Header
#
# Title: Oxs_MinDriver::Magnetization
# Desc: Oxs vector field output
# Desc:  MIF source file: F:/Bogdan/UNIC/2022/Master_degree/Samples/Cylinder0_5000 1.mif
# Desc:  Iteration: 527, State id: 10040
# Desc:  Stage: 0, Stage iteration: 527
# Desc:  Stage simulation time: -1 s
# Desc:  Total simulation time: -2 s
# meshunit: m
# meshtype: rectangular
# xbase: -8.9999999999999995e-09
# ybase: -8.9999999999999995e-09
# zbase: -2.0999999999999999e-08
# xnodes: 10
# ynodes: 10
# znodes: 22
# xstepsize: 2.0000000000000001e-09
# ystepsize: 2.0000000000000001e-09
# zstepsize: 2.0000000000000001e-09
# xmin: -1e-08
# ymin: -1e-08
# zmin: -2.1999999999999998e-08
# xmax: 1e-08
# ymax: 1e-08
# zmax: 2.2000000000000005e-08
# valuedim: 3
# valuelabels: Magnetization_x Magnetization_y Magnetization_z
# valueunits: A/m A/m A/m
#
# End: Header
#
# Begin: Data Text
 0 0 0
 0 0 0
 0 0 0
 -2405.152249 -475274.3999 -45610.64985
 -917.8162159 -475235.3575 -46069.33738
 917.8173248 -475235.3576 -46069.33675
 2405.153566 -475274.4 -45610.64849
 0 0 -0
 0 0 -0
 0 0 -0
 0 0 0
 -7118.910435 -476209.733 -33844.97937
 -4022.501951 -476131.9555 -35412.59305
 -1784.281829 -475907.6656 -38478.32485
 -616.6882882 -475836.4972 -39384.24681
 616.6891159 -475836.4973 -39384.2455
 1784.282211 -475907.6657 -38478.32284
 4022.502535 -476131.9557 -35412.59014
 7118.911187 -476209.7332 -33844.97604
 0 0 -0
 0 0 0
 -3977.222461 -476688.9475 -26901.67831
 -2767.490749 -476639.9027 -27903.68236
 -1403.045757 -476568.4693 -29195.83515
 -440.000701 -476533.5317 -29790.44906
 440.0000183 -476533.5317 -29790.44897
 1403.045164 -476568.4695 -29195.83299
 2767.489733 -476639.9028 -27903.67942
 3977.221509 -476688.9478 -26901.67432
 0 0 -0
 -2410.967286 -477313.13 -11757.31627
 -1761.721854 -477197.3812 -15856.45127
 -1390.456149 -477148.1093 -17309.52588
 -808.3303242 -477119.5948 -18113.81061
 -260.313068 -477106.2682 -18477.34654
 260.3103177 -477106.2683 -18477.3464
 808.3273566 -477119.5949 -18113.80984
 1390.45264 -477148.1095 -17309.52276
 1761.717125 -477197.3813 -15856.44732
 2410.961425 -477313.1302 -11757.30938
 -920.3706015 -477442.4049 -4446.817368
 -612.1371325 -477433.5947 -5353.428331
 -435.1613692 -477427.8885 -5856.041179
 -258.9679274 -477424.5677 -6130.774858
 -84.90771023 -477423.029 -6254.232464
 84.90189218 -477423.0291 -6254.231817
 258.96206 -477424.5677 -6130.773331
 435.154213 -477427.8885 -5856.037492
 612.1282449 -477433.5948 -5353.423728
 920.361471 -477442.405 -4446.810934
 920.3627775 -477442.405 4446.814369
 612.1290525 -477433.5948 5353.427443
 435.154182 -477427.8885 5856.040985
 258.9612126 -477424.5677 6130.776996
 84.90011148 -477423.029 6254.235611
 -84.91009444 -477423.029 6254.236193
 -258.9708975 -477424.5676 6130.778638
 -435.1652855 -477427.8884 5856.044691
 -612.141769 -477433.5947 5353.430859
 -920.37568 -477442.4049 4446.819425
 2410.959884 -477313.1301 11757.31274
 1761.714292 -477197.3812 15856.45088
 1390.449185 -477148.1093 17309.52634
 808.3232119 -477119.5948 18113.81277
 260.3052804 -477106.2681 18477.35004
 -260.3187519 -477106.2681 18477.3507
 -808.3365118 -477119.5946 18113.81535
 -1390.463399 -477148.1092 17309.52989
 -1761.729918 -477197.381 15856.45453
 -2410.975225 -477313.1299 11757.31874
 0 0 0
 3977.215354 -476688.9476 26901.67807
 2767.483637 -476639.9027 27903.68289
 1403.03883 -476568.4693 29195.83655
 439.993135 -476533.5315 29790.45223
 -440.0080676 -476533.5314 29790.45393
 -1403.053876 -476568.469 29195.83979
 -2767.500014 -476639.9023 27903.68721
 -3977.233044 -476688.9472 26901.68269
 0 0 -0
 0 0 0
 7118.903648 -476209.733 33844.98001
 4022.495297 -476131.9555 35412.59386
 1784.274925 -475907.6655 38478.32628
 616.681695 -475836.497 39384.24948
 -616.6962736 -475836.4968 39384.25147
 -1784.290758 -475907.6651 38478.33012
 -4022.512236 -476131.955 35412.59813
 -7118.921896 -476209.7325 33844.98432
 0 0 -0
 0 0 0
 0 0 0
 0 0 0
 2405.145336 -475274.3997 45610.6515
 917.8098693 -475235.3573 46069.34043
 -917.8240909 -475235.3571 46069.34232
 -2405.161317 -475274.3993 45610.65547
 0 0 -0
 0 0 -0
 0 0 -0
 0 0 0
 0 0 0
 0 0 0
 -2465.329018 -475632.7625 -41704.5405
 -944.7948712 -475594.7089 -42197.76648
 944.7952703 -475594.709 -42197.7655
 2465.329607 -475632.7627 -41704.53829
 0 0 -0
 0 0 -0
 0 0 -0
 0 0 0
 -7503.819122 -476405.9034 -30870.36158
 -4071.197799 -476341.3347 -32468.90104
 -1700.611769 -476130.0004 -35625.86015
 -590.1012119 -476055.1389 -36647.34408
 590.100679 -476055.139 -36647.3428
 1700.611222 -476130.0006 -35625.85783
 4071.196994 -476341.3349 -32468.89711
 7503.819443 -476405.9037 -30870.35716
 0 0 -0
 0 0 0
 -4004.787302 -476803.0757 -24792.33749
 -2728.185093 -476750.8398 -25943.4968
 -1328.72042 -476678.1486 -27350.47432
 -409.9412629 -476641.0341 -28018.34897
 409.9390033 -476641.0342 -28018.34766
 1328.718185 -476678.1487 -27350.47195
 2728.183225 -476750.84 -25943.49353
 4004.785893 -476803.0759 -24792.33327
 0 0 -0
 -2497.887976 -477342.6157 -10471.82206
 -1679.20688 -477237.9131 -14595.40544
 -1314.79273 -477187.5528 -16192.03617
 -753.3110006 -477157.8549 -17078.79766
 -240.0959207 -477143.7758 -17482.3026
 240.0913718 -477143.7758 -17482.30245
 753.3064159 -477157.855 -17078.79618
 1314.787732 -477187.5529 -16192.03345
 1679.202024 -477237.9133 -14595.40059
 2497.881443 -477342.6159 -10471.81608
 -949.9375696 -477446.0788 -4026.253101
 -585.8026639 -477437.9843 -4949.672493
 -404.4811883 -477432.2112 -5494.670697
 -238.5160165 -477428.75 -5796.81858
 -77.76486271 -477427.1296 -5933.058031
 77.75777566 -477427.1296 -5933.057361
 238.5086624 -477428.75 -5796.817419
 404.4735457 -477432.2112 -5494.667511
 585.7938541 -477437.9844 -4949.668238
 949.9279865 -477446.0789 -4026.246653
 949.9290976 -477446.0789 4026.250324
 585.7944578 -477437.9843 4949.671615
 404.4737562 -477432.2112 5494.671587
 238.5082295 -477428.7499 5796.820803
 77.75656944 -477427.1296 5933.060929
 -77.76659189 -477427.1295 5933.061872
 -238.5183372 -477428.7499 5796.822339
 -404.4844861 -477432.2112 5494.673475
 -585.8067851 -477437.9843 4949.675307
 -949.9421766 -477446.0788 4026.25506
 2497.879879 -477342.6158 10471.81969
 1679.199305 -477237.9132 14595.40456
 1314.784906 -477187.5528 16192.03665
 753.3031807 -477157.8548 17078.79967
 240.0876273 -477143.7756 17482.30585
 -240.1002721 -477143.7756 17482.30682
 -753.3160887 -477157.8547 17078.80167
 -1314.79872 -477187.5527 16192.04011
 -1679.214282 -477237.913 14595.40818
 -2497.895121 -477342.6156 10471.82433
 0 0 0
 4004.780342 -476803.0757 24792.33739
 2728.178052 -476750.8398 25943.49732
 1328.712975 -476678.1486 27350.47548
 409.9331895 -476641.0339 28018.35148
 -409.9476827 -476641.0338 28018.35305
 -1328.727303 -476678.1483 27350.47873
 -2728.193241 -476750.8396 25943.50088
 -4004.796589 -476803.0754 24792.34145
 0 0 -0
 0 0 0
 7503.812946 -476405.9034 30870.36195
 4071.191012 -476341.3347 32468.90161
 1700.604571 -476130.0003 35625.86176
 590.0939483 -476055.1387 36647.34677
 -590.1085392 -476055.1385 36647.34831
 -1700.619991 -476130.0001 35625.86448
 -4071.206547 -476341.3343 32468.90529
 -7503.829169 -476405.9029 30870.36589
 0 0 -0
 0 0 0
 0 0 0
 0 0 0
 2465.321815 -475632.7624 41704.54173
 944.7877812 -475594.7087 42197.76924
 -944.8026059 -475594.7085 42197.77089
 -2465.337753 -475632.762 41704.54527
 0 0 -0
 0 0 -0
 0 0 -0
 0 0 0
 0 0 0
 0 0 0
 -2608.491355 -476062.8294 -36458.87468
 -998.3244756 -476031.9575 -36938.46301
 998.3266442 -476031.9576 -36938.46179
 2608.493532 -476062.8296 -36458.87183
 0 0 -0
 0 0 -0
 0 0 -0
 0 0 0
 -7951.360793 -476636.7466 -26945.48128
 -4305.158519 -476595.6902 -28458.47822
 -1782.659124 -476427.7301 -31389.67118
 -611.6533504 -476362.7504 -32404.12329
 611.6534237 -476362.7505 -32404.12171
 1782.658627 -476427.7303 -31389.6681
 4305.157268 -476595.6905 -28458.47345
 7951.359465 -476636.7469 -26945.47671
 0 0 -0
 0 0 0
 -4230.091432 -476949.2448 -21757.65391
 -2841.768882 -476904.7721 -22926.70965
 -1357.317866 -476841.4679 -24336.0526
 -412.95622 -476807.3355 -25029.29457
 412.9527127 -476807.3355 -25029.29357
 1357.3146 -476841.4681 -24336.0501
 2841.765152 -476904.7723 -22926.70576
 4230.088237 -476949.245 -21757.64946
 0 0 -0
 -2655.794498 -477371.5582 -9011.854245
 -1762.737466 -477288.97 -12806.37393
 -1342.915938 -477245.2662 -14388.32123
 -753.0573742 -477218.1515 -15301.63726
 -236.8213322 -477204.844 -15727.43059
 236.8144108 -477204.844 -15727.43005
 753.0503897 -477218.1515 -15301.63585
 1342.90967 -477245.2663 -14388.31782
 1762.730054 -477288.9701 -12806.36984
 2655.784608 -477371.5583 -9011.848872
 -1007.073783 -477450.245 -3481.475189
 -608.2021829 -477443.7844 -4351.337905
 -407.3056341 -477438.7124 -4897.071111
 -235.1231601 -477435.502 -5211.276399
 -75.75645768 -477433.9539 -5355.854957
 75.74639697 -477433.9539 -5355.854644
 235.1141282 -477435.5021 -5211.274908
 407.2959459 -477438.7124 -4897.069344
 608.1915833 -477443.7844 -4351.33417
 1007.06125 -477450.245 -3481.470342
 1007.062519 -477450.245 3481.473904
 608.1921374 -477443.7844 4351.33816
 407.2961193 -477438.7124 4897.072708
 235.1137771 -477435.502 5211.278509
 75.74585761 -477433.9539 5355.858006
 -75.75752674 -477433.9539 5355.858449
 -235.1252433 -477435.502 5211.279676
 -407.3084022 -477438.7124 4897.074504
 -608.2056883 -477443.7844 4351.34011
 -1007.077263 -477450.245 3481.477359
 2655.783857 -477371.5582 9011.852781
 1762.728097 -477288.97 12806.37397
 1342.907236 -477245.2662 14388.32194
 753.0477674 -477218.1514 15301.63937
 236.8112825 -477204.8439 15727.43333
 -236.8250816 -477204.8439 15727.43417
 -753.0615075 -477218.1514 15301.64091
 -1342.921265 -477245.2661 14388.32385
 -1762.743049 -477288.9699 12806.37655
 -2655.799838 -477371.5581 9011.856389
 0 0 0
 4230.083261 -476949.2449 21757.65438
 2841.760339 -476904.7721 22926.71012
 1357.309523 -476841.4679 24336.05372
 412.9474158 -476807.3354 25029.29716
 -412.9619612 -476807.3353 25029.29806
 -1357.324376 -476841.4677 24336.05604
 -2841.776098 -476904.7719 22926.71271
 -4230.099532 -476949.2446 21757.65641
 0 0 -0
 0 0 0
 7951.353375 -476636.7467 26945.48214
 4305.151396 -476595.6903 28458.4783
 1782.652082 -476427.73 31389.6717
 611.6461639 -476362.7503 32404.1253
 -611.6609256 -476362.7502 32404.12636
 -1782.666948 -476427.7298 31389.67456
 -4305.166853 -476595.69 28458.48097
 -7951.369795 -476636.7463 26945.48398
 0 0 -0
 0 0 0
 0 0 0
 0 0 0
 2608.484994 -476062.8294 36458.87487
 998.3178761 -476031.9574 36938.46505
 -998.3334781 -476031.9573 36938.46617
 -2608.500521 -476062.8291 36458.87805
 0 0 -0
 0 0 -0
 0 0 -0
 0 0 0
 0 0 0
 0 0 0
 -2785.114073 -476452.3924 -30939.16937
 -1065.097534 -476431.2387 -31368.96059
 1065.100415 -476431.2388 -31368.95899
 2785.115705 -476452.3925 -30939.16741
 0 0 -0
 0 0 -0
 0 0 -0
 0 0 0
 -8400.521657 -476843.154 -22845.32824
 -4618.366841 -476828.6248 -24186.86772
 -1949.138416 -476710.2164 -26747.74318
 -664.7002985 -476661.3099 -27666.31695
 664.7003939 -476661.31 -27666.31622
 1949.137711 -476710.2165 -26747.74043
 4618.364918 -476828.625 -24186.86417
 8400.519248 -476843.1542 -22845.3239
 0 0 -0
 0 0 0
 -4538.847574 -477084.0982 -18494.14538
 -3055.263841 -477053.0437 -19568.60034
 -1468.303915 -477005.7077 -20863.12958
 -446.4150102 -476978.7832 -21515.3978
 446.4107977 -476978.7833 -21515.39713
 1468.29925 -477005.7078 -20863.12872
 3055.259122 -477053.0439 -19568.59711
 4538.842155 -477084.0984 -18494.14235
 0 0 -0
 -2840.621075 -477395.3648 -7580.756058
 -1930.18314 -477336.0015 -10885.19075
 -1453.742687 -477302.7073 -12324.10363
 -809.8094065 -477281.2858 -13182.93467
 -253.6033669 -477270.4182 -13592.45581
 253.5949798 -477270.4182 -13592.45647
 809.8015095 -477281.2858 -13182.93337
 1453.734276 -477302.7074 -12324.10145
 1930.173757 -477336.0016 -10885.18788
 2840.609424 -477395.3649 -7580.753102
 -1076.33143 -477453.7823 -2932.335238
 -661.9014142 -477449.1944 -3701.342596
 -440.726762 -477445.2972 -4203.003528
 -251.8547456 -477442.712 -4501.625789
 -80.65121782 -477441.4272 -4642.024199
 80.64021072 -477441.4272 -4642.02407
 251.8436764 -477442.712 -4501.625913
 440.7152921 -477445.2972 -4203.00219
 661.8884492 -477449.1944 -3701.340636
 1076.317477 -477453.7823 -2932.33194
 1076.318541 -477453.7823 2932.335029
 661.8891237 -477449.1944 3701.343853
 440.7154864 -477445.2972 4203.005625
 251.8433902 -477442.712 4501.628588
 80.63952199 -477441.4272 4642.027326
 -80.6526676 -477441.4272 4642.027071
 -251.8566034 -477442.712 4501.629333
 -440.7291084 -477445.2972 4203.006002
 -661.903977 -477449.1944 3701.345267
 -1076.334352 -477453.7823 2932.337603
 2840.60917 -477395.3648 7580.756087
 1930.171967 -477336.0015 10885.19148
 1453.731824 -477302.7073 12324.10497
 809.7988055 -477281.2857 13182.93636
 253.5919663 -477270.4182 13592.45887
 -253.6068024 -477270.4181 13592.45944
 -809.8136777 -477281.2857 13182.93754
 -1453.747331 -477302.7072 12324.1064
 -1930.18806 -477336.0014 10885.19324
 -2840.62521 -477395.3647 7580.758946
 0 0 0
 4538.837724 -477084.0982 18494.14715
 3055.254489 -477053.0438 19568.60137
 1468.294328 -477005.7077 20863.13146
 446.405577 -476978.7832 21515.40007
 -446.420573 -476978.7831 21515.40055
 -1468.310035 -477005.7076 20863.13295
 -3055.27057 -477053.0436 19568.60235
 -4538.854437 -477084.0981 18494.14727
 0 0 -0
 0 0 0
 8400.513152 -476843.1541 22845.32925
 4618.358708 -476828.6248 24186.86842
 1949.130962 -476710.2164 26747.74335
 664.6929462 -476661.3098 27666.31844
 -664.7081312 -476661.3097 27666.31985
 -1949.146147 -476710.2162 26747.74571
 -4618.37504 -476828.6246 24186.8699
 -8400.530261 -476843.1538 22845.3296
 0 0 -0
 0 0 0
 0 0 0
 0 0 0
 2785.107881 -476452.3925 30939.16931
 1065.091432 -476431.2386 31368.96158
 -1065.106707 -476431.2385 31368.96263
 -2785.122312 -476452.3922 30939.1722
 0 0 -0
 0 0 -0
 0 0 -0
 0 0 0
 0 0 0
 0 0 0
 -2958.597502 -476767.2046 -25615.43695
 -1131.656568 -476755.2746 -25980.73923
 1131.658833 -476755.2746 -25980.73812
 2958.597863 -476767.2047 -25615.43553
 0 0 -0
 0 0 -0
 0 0 -0
 0 0 0
 -8812.016407 -477008.2109 -18904.66524
 -4934.743681 -477017.7082 -20040.60009
 -2134.20241 -476943.2213 -22191.89293
 -726.7749732 -476910.2351 -22977.61353
 726.7755231 -476910.2352 -22977.61297
 2134.200856 -476943.2214 -22191.89185
 4934.740051 -477017.7083 -20040.59869
 8812.011861 -477008.211 -18904.66475
 0 0 -0
 0 0 0
 -4852.126935 -477193.3971 -15322.85703
 -3295.532098 -477176.0262 -16249.6405
 -1610.228902 -477145.281 -17368.34246
 -492.8723521 -477126.5926 -17939.98396
 492.8678628 -477126.5926 -17939.98426
 1610.223323 -477145.281 -17368.34212
 3295.525392 -477176.0262 -16249.63981
 4852.119502 -477193.3972 -15322.85688
 0 0 -0
 -3019.334621 -477413.614 -6244.683734
 -2115.795462 -477374.1447 -9017.799292
 -1595.564422 -477351.2078 -10254.26214
 -893.6751433 -477336.2524 -11007.94298
 -280.9187811 -477328.452 -11372.83025
 280.9096842 -477328.452 -11372.82951
 893.6654049 -477336.2524 -11007.94326
 1595.55409 -477351.2078 -10254.2615
 2115.784247 -477374.1447 -9017.798599
 3019.321652 -477413.6141 -6244.683392
 -1144.537575 -477456.5127 -2416.568692
 -724.406276 -477453.5979 -3067.309465
 -487.1718999 -477450.9134 -3501.323219
 -279.1436891 -477449.0707 -3765.406323
 -89.51823086 -477448.1327 -3891.507046
 89.50549271 -477448.1327 -3891.507191
 279.130571 -477449.0707 -3765.405865
 487.1588977 -477450.9134 -3501.323544
 724.3921091 -477453.5979 -3067.309057
 1144.522028 -477456.5127 -2416.567545
 1144.52322 -477456.5127 2416.570191
 724.3926507 -477453.5979 3067.311551
 487.1587278 -477450.9134 3501.325832
 279.1300788 -477449.0707 3765.408422
 89.5043627 -477448.1327 3891.509446
 -89.51988979 -477448.1327 3891.510294
 -279.145822 -477449.0707 3765.409107
 -487.1743916 -477450.9134 3501.326261
 -724.4087946 -477453.5979 3067.312315
 -1144.539932 -477456.5127 2416.571289
 3019.321764 -477413.6141 6244.6853
 2115.782551 -477374.1447 9017.801078
 1595.55159 -477351.2078 10254.26378
 893.6623482 -477336.2524 11007.945
 280.9064676 -477328.452 11372.83213
 -280.9226588 -477328.452 11372.83286
 -893.6794498 -477336.2523 11007.94648
 -1595.569036 -477351.2077 10254.2652
 -2115.799763 -477374.1446 9017.802427
 -3019.338013 -477413.6139 6244.687217
 0 0 0
 4852.115073 -477193.3971 15322.85992
 3295.520426 -477176.0262 16249.64267
 1610.218281 -477145.2809 17368.34427
 492.8624957 -477126.5925 17939.98592
 -492.8782978 -477126.5925 17939.98729
 -1610.234998 -477145.2808 17368.34542
 -3295.538753 -477176.026 16249.64334
 -4852.133613 -477193.3969 15322.8598
 0 0 -0
 0 0 0
 8812.005776 -477008.211 18904.66833
 4934.733653 -477017.7082 20040.6017
 2134.194039 -476943.2213 22191.89373
 726.7678158 -476910.2351 22977.61515
 -726.782718 -476910.235 22977.61598
 -2134.209972 -476943.2211 22191.89598
 -4934.751802 -477017.708 20040.6028
 -8812.024717 -477008.2107 18904.66778
 0 0 -0
 0 0 0
 0 0 0
 0 0 0
 2958.590419 -476767.2047 25615.43688
 1131.649888 -476755.2746 25980.73994
 -1131.66557 -476755.2744 25980.74149
 -2958.605143 -476767.2044 25615.43974
 0 0 -0
 0 0 -0
 0 0 -0
 0 0 0
 0 0 0
 0 0 0
 -3110.662926 -477005.6537 -20683.36139
 -1190.487188 -477001.27 -20981.95485
 1190.485742 -477001.2701 -20981.95359
 3110.659228 -477005.6538 -20683.35955
 0 0 -0
 0 0 -0
 0 0 -0
 0 0 0
 -9163.821107 -477132.07 -15260.52062
 -5216.12723 -477160.9925 -16187.97454
 -2304.600493 -477121.3526 -17938.08734
 -785.1280127 -477101.5861 -18583.09436
 785.1251123 -477101.5861 -18583.09388
 2304.596194 -477121.3527 -17938.08697
 5216.121705 -477160.9925 -16187.97642
 9163.815516 -477132.07 -15260.52407
 0 0 -0
 0 0 0
 -5131.134024 -477275.9793 -12376.68549
 -3519.214419 -477270.1603 -13140.7941
 -1748.942044 -477253.5945 -14064.8149
 -539.6550941 -477242.2336 -14540.65181
 539.6493036 -477242.2336 -14540.6517
 1748.934556 -477253.5945 -14064.81504
 3519.206161 -477270.1604 -13140.79554
 5131.12585 -477275.9793 -12376.68817
 0 0 -0
 -3175.122876 -477426.9781 -5026.972046
 -2286.53606 -477402.978 -7282.834646
 -1734.194713 -477388.6804 -8301.308021
 -980.3505385 -477379.4852 -8929.576631
 -310.1141084 -477374.5512 -9236.50295
 310.1042771 -477374.5512 -9236.502807
 980.3394589 -477379.4852 -8929.577693
 1734.183203 -477388.6804 -8301.310067
 2286.523795 -477402.978 -7282.837286
 3175.10916 -477426.9782 -5026.973788
 -1204.554176 -477458.5159 -1945.73782
 -783.0689378 -477456.9303 -2477.468444
 -533.9503531 -477455.2766 -2836.385602
 -308.3228386 -477454.1102 -3057.588346
 -99.33858929 -477453.5046 -3164.230249
 99.32491296 -477453.5046 -3164.230194
 308.3084152 -477454.1102 -3057.589823
 533.9355762 -477455.2766 -2836.386662
 783.0541383 -477456.9303 -2477.469544
 1204.538497 -477458.516 -1945.738444
 1204.539708 -477458.516 1945.740698
 783.0546727 -477456.9303 2477.471575
 533.9357874 -477455.2766 2836.388784
 308.3077782 -477454.1102 3057.591659
 99.32355559 -477453.5046 3164.232402
 -99.34054644 -477453.5046 3164.232403
 -308.3249475 -477454.1102 3057.591184
 -533.952548 -477455.2765 2836.388357
 -783.0714572 -477456.9302 2477.471329
 -1204.556633 -477458.5159 1945.740299
 3175.109007 -477426.9782 5026.975125
 2286.522223 -477402.978 7282.838603
 1734.180607 -477388.6804 8301.31154
 980.3363656 -477379.4852 8929.579547
 310.1006148 -477374.5512 9236.504782
 -310.1184281 -477374.5512 9236.505573
 -980.354937 -477379.4851 8929.579645
 -1734.199234 -477388.6803 8301.311765
 -2286.540462 -477402.9779 7282.83837
 -3175.126558 -477426.9781 5026.975455
 0 0 0
 5131.121131 -477275.9793 12376.68959
 3519.201417 -477270.1603 13140.79752
 1748.92972 -477253.5945 14064.81688
 539.6439268 -477242.2335 14540.65373
 -539.6605847 -477242.2335 14540.65455
 -1748.948044 -477253.5944 14064.81801
 -3519.220966 -477270.1602 13140.79742
 -5131.14086 -477275.9791 12376.68956
 0 0 -0
 0 0 0
 9163.808922 -477132.07 15260.52539
 5216.115181 -477160.9925 16187.97827
 2304.59016 -477121.3526 17938.08848
 785.1188275 -477101.5861 18583.09598
 -785.1347805 -477101.586 18583.09679
 -2304.607208 -477121.3525 17938.09063
 -5216.135288 -477160.9923 16187.97821
 -9163.829792 -477132.0697 15260.52515
 0 0 -0
 0 0 0
 0 0 0
 0 0 0
 3110.653239 -477005.6537 20683.36119
 1190.478721 -477001.27 20981.95524
 -1190.494284 -477001.2699 20981.95736
 -3110.669319 -477005.6535 20683.36411
 0 0 -0
 0 0 -0
 0 0 -0
 0 0 0
 0 0 0
 0 0 0
 -3234.766726 -477178.3079 -16194.75235
 -1238.701655 -477179.6282 -16429.83141
 1238.697712 -477179.6282 -16429.8311
 3234.761416 -477178.308 -16194.75127
 0 0 -0
 0 0 -0
 0 0 -0
 0 0 0
 -9448.423534 -477220.9817 -11947.0995
 -5447.839047 -477264.5827 -12677.16104
 -2446.988156 -477250.8785 -14052.84602
 -834.342252 -477241.1535 -14562.16379
 834.3371176 -477241.1535 -14562.16362
 2446.982155 -477250.8785 -14052.84729
 5447.833198 -477264.5827 -12677.16512
 9448.417521 -477220.9817 -11947.10644
 0 0 -0
 0 0 0
 -5361.039523 -477335.5086 -9692.408817
 -3707.404945 -477338.5561 -10297.05325
 -1868.264539 -477332.9416 -11029.22193
 -580.447413 -477327.3464 -11407.83863
 580.4403176 -477327.3464 -11407.83928
 1868.257252 -477332.9416 -11029.22261
 3707.396935 -477338.5561 -10297.05712
 5361.03123 -477335.5086 -9692.414608
 0 0 -0
 -3302.014922 -477436.4193 -3928.552274
 -2429.180052 -477423.7667 -5702.404101
 -1853.460757 -477416.0404 -6508.481319
 -1056.927994 -477411.3833 -7008.944272
 -336.3180478 -477408.7641 -7254.665604
 336.3079236 -477408.7641 -7254.665811
 1056.917518 -477411.3833 -7008.946408
 1853.449576 -477416.0404 -6508.484271
 2429.168221 -477423.7667 -5702.409462
 3302.002208 -477436.4193 -3928.556766
 -1253.676462 -477459.9322 -1520.766624
 -832.5298337 -477459.3333 -1939.895735
 -574.747738 -477458.4716 -2224.606545
 -334.5170804 -477457.8443 -2401.31508
 -108.3027197 -477457.5107 -2486.970949
 108.2886275 -477457.5107 -2486.971772
 334.5030466 -477457.8443 -2401.316905
 574.7334878 -477458.4716 -2224.608801
 832.5153629 -477459.3334 -1939.898631
 1253.661743 -477459.9322 -1520.76997
 1253.662698 -477459.9322 1520.77175
 832.5158053 -477459.3333 1939.900432
 574.7333158 -477458.4716 2224.61052
 334.5021447 -477457.8443 2401.319047
 108.2873725 -477457.5107 2486.974127
 -108.3045469 -477457.5107 2486.973169
 -334.5195639 -477457.8443 2401.317476
 -574.7502174 -477458.4716 2224.609305
 -832.5327972 -477459.3333 1939.897835
 -1253.67942 -477459.9322 1520.7685
 3302.001241 -477436.4193 3928.557521
 2429.16623 -477423.7667 5702.410071
 1853.446945 -477416.0404 6508.486068
 1056.914026 -477411.3833 7008.948305
 336.303937 -477408.764 7254.668033
 -336.3224701 -477408.764 7254.668061
 -1056.932832 -477411.3832 7008.947207
 -1853.465614 -477416.0404 6508.484104
 -2429.184958 -477423.7666 5702.407808
 -3302.019829 -477436.4192 3928.555321
 0 0 0
 5361.026402 -477335.5086 9692.415143
 3707.39187 -477338.5561 10297.05829
 1868.25227 -477332.9416 11029.22509
 580.4352568 -477327.3463 11407.84115
 -580.4529498 -477327.3463 11407.84142
 -1868.270596 -477332.9415 11029.22417
 -3707.411643 -477338.556 10297.05696
 -5361.046686 -477335.5084 9692.413093
 0 0 -0
 0 0 0
 9448.410592 -477220.9818 11947.10608
 5447.826623 -477264.5827 12677.16594
 2446.976377 -477250.8785 14052.84853
 834.3314957 -477241.1534 14562.16582
 -834.3480521 -477241.1534 14562.16613
 -2446.994825 -477250.8784 14052.84944
 -5447.847216 -477264.5825 12677.1651
 -9448.432456 -477220.9814 11947.1049
 0 0 -0
 0 0 0
 0 0 0
 0 0 0
 3234.755779 -477178.308 16194.75313
 1238.691843 -477179.6282 16429.8329
 -1238.70795 -477179.6281 16429.83374
 -3234.772941 -477178.3078 16194.75477
 0 0 -0
 0 0 -0
 0 0 -0
 0 0 0
 0 0 0
 0 0 0
 -3330.313191 -477298.4513 -12123.06445
 -1275.896592 -477303.8518 -12299.4501
 1275.893105 -477303.8518 -12299.4503
 3330.309282 -477298.4513 -12123.06553
 0 0 -0
 0 0 -0
 0 0 -0
 0 0 0
 -9666.938941 -477282.3568 -8942.786699
 -5627.272089 -477336.4983 -9490.651572
 -2557.986604 -477341.1808 -10522.60001
 -872.8715446 -477338.6417 -10905.52873
 872.8671303 -477338.6417 -10905.52977
 2557.9816 -477341.1808 -10522.60267
 5627.266056 -477336.4983 -9490.658334
 9666.932491 -477282.3568 -8942.79511
 0 0 -0
 0 0 0
 -5539.151896 -477376.7234 -7256.243093
 -3854.699013 -477386.1629 -7711.294289
 -1962.674833 -477388.4634 -8262.820041
 -612.9375303 -477387.0715 -8548.657911
 612.9310843 -477387.0715 -8548.658779
 1962.667612 -477388.4634 -8262.823029
 3854.691422 -477386.1629 -7711.299814
 5539.143874 -477376.7234 -7256.250603
 0 0 -0
 -3399.64957 -477442.8616 -2937.270954
 -2540.388054 -477438.161 -4268.506529
 -1947.839192 -477435.1337 -4875.479604
 -1118.349514 -477433.7863 -5253.602017
 -357.5038421 -477432.8775 -5439.755929
 357.4943352 -477432.8775 -5439.757057
 1118.340036 -477433.7862 -5253.605628
 1947.829238 -477435.1337 -4875.485018
 2540.378164 -477438.161 -4268.512308
 3399.639227 -477442.8617 -2937.276432
 -1291.570183 -477460.899 -1137.121931
 -871.2605881 -477460.997 -1452.08811
 -607.2512274 -477460.7046 -1666.751174
 -355.6985355 -477460.4727 -1800.482752
 -115.6132108 -477460.3416 -1865.497557
 115.6004314 -477460.3416 -1865.499109
 355.6856651 -477460.4727 -1800.485497
 607.2381674 -477460.7046 -1666.755869
 871.2476924 -477460.997 -1452.093176
 1291.557319 -477460.899 -1137.127068
 1291.557704 -477460.899 1137.12816
 871.2478962 -477460.997 1452.094394
 607.2375873 -477460.7046 1666.757424
 355.6851174 -477460.4727 1800.487864
 115.5993383 -477460.3416 1865.501283
 -115.6148852 -477460.3416 1865.500591
 -355.7006236 -477460.4727 1800.484789
 -607.2542579 -477460.7046 1666.752954
 -871.2637488 -477460.997 1452.089366
 -1291.573875 -477460.899 1137.122664
 3399.637616 -477442.8617 2937.276712
 2540.375512 -477438.161 4268.512791
 1947.825972 -477435.1337 4875.486379
 1118.336474 -477433.7862 5253.607639
 357.4906761 -477432.8775 5439.759764
 -357.5078957 -477432.8775 5439.758241
 -1118.35444 -477433.7862 5253.604352
 -1947.844472 -477435.1337 4875.481904
 -2540.393939 -477438.1609 4268.508779
 -3399.655237 -477442.8616 2937.272458
 0 0 0
 5539.138732 -477376.7234 7256.250402
 3854.686242 -477386.1629 7711.300843
 1962.662477 -477388.4634 8262.824949
 612.9260732 -477387.0715 8548.660963
 -612.9428596 -477387.0715 8548.660416
 -1962.680989 -477388.4634 8262.822493
 -3854.706061 -477386.1628 7711.297183
 -5539.159239 -477376.7232 7256.246714
 0 0 -0
 0 0 0
 9666.92592 -477282.357 8942.793701
 5627.259869 -477336.4983 9490.657994
 2557.97559 -477341.1808 10522.6038
 872.8613705 -477338.6416 10905.53156
 -872.8776035 -477338.6416 10905.5315
 -2557.993357 -477341.1807 10522.60322
 -5627.279707 -477336.4982 9490.656006
 -9666.947549 -477282.3566 8942.79179
 0 0 -0
 0 0 0
 0 0 0
 0 0 0
 3330.303381 -477298.4513 12123.06661
 1275.886964 -477303.8517 12299.45218
 -1275.90291 -477303.8517 12299.4526
 -3330.319648 -477298.4512 12123.06763
 0 0 -0
 0 0 -0
 0 0 -0
 0 0 0
 0 0 0
 0 0 0
 -3399.098197 -477378.0077 -8399.716056
 -1302.699373 -477386.1635 -8522.039182
 1302.694775 -477386.1635 -8522.040668
 3399.09356 -477378.0076 -8399.719373
 0 0 -0
 0 0 -0
 0 0 -0
 0 0 0
 -9824.159389 -477322.7067 -6196.035362
 -5756.92801 -477384.0012 -6576.056297
 -2638.446015 -477401.0252 -7291.84947
 -900.8577808 -477403.3305 -7557.765674
 900.8528139 -477403.3304 -7557.767735
 2638.441426 -477401.0251 -7291.854217
 5756.922523 -477384.0011 -6576.06362
 9824.154134 -477322.7067 -6196.044594
 0 0 -0
 0 0 0
 -5667.895777 -477403.8816 -5027.933647
 -3961.715904 -477417.6547 -5344.072475
 -2031.643617 -477425.3239 -5727.459557
 -636.7517381 -477426.7941 -5926.388514
 636.746022 -477426.7941 -5926.389834
 2031.637534 -477425.3239 -5727.463772
 3961.71036 -477417.6546 -5344.079656
 5667.890061 -477403.8816 -5027.941027
 0 0 -0
 -3469.929577 -477447.0603 -2033.593361
 -2621.013222 -477447.6469 -2957.367426
 -2016.793262 -477447.7818 -3379.281117
 -1163.539886 -477448.6874 -3642.571883
 -373.1554475 -477448.9514 -3772.374793
 373.1476492 -477448.9514 -3772.376256
 1163.532254 -477448.6874 -3642.575695
 2016.785922 -477447.7817 -3379.28682
 2621.00583 -477447.6469 -2957.373596
 3469.922395 -477447.0603 -2033.598941
 -1318.884847 -477461.5293 -787.3139329
 -899.4007509 -477462.093 -1006.03784
 -631.0804192 -477462.1851 -1155.361132
 -371.3484232 -477462.2231 -1248.566624
 -121.0390508 -477462.2313 -1293.94987
 121.029174 -477462.2313 -1293.9514
 371.3380421 -477462.2231 -1248.57087
 631.0701148 -477462.1851 -1155.367205
 899.3905925 -477462.093 -1006.043234
 1318.874425 -477461.5293 -787.3198544
 1318.874938 -477461.5293 787.3204906
 899.3903771 -477462.093 1006.044179
 631.0696553 -477462.1851 1155.368498
 371.3373086 -477462.2231 1248.572731
 121.0281841 -477462.2313 1293.953712
 -121.0404379 -477462.2313 1293.952227
 -371.350468 -477462.2231 1248.56866
 -631.0829628 -477462.1851 1155.362496
 -899.4042779 -477462.093 1006.038183
 -1318.888384 -477461.5293 787.3133861
 3469.920104 -477447.0603 2033.599683
 2621.002583 -477447.647 2957.374027
 2016.782972 -477447.7817 3379.287956
 1163.529635 -477448.6874 3642.577535
 373.1452465 -477448.9514 3772.378284
 -373.1582318 -477448.9514 3772.377342
 -1163.543663 -477448.6874 3642.573707
 -2016.798294 -477447.7817 3379.282693
 -2621.019188 -477447.6469 2957.368342
 -3469.935785 -477447.0603 2033.592747
 0 0 0
 5667.885096 -477403.8816 5027.94085
 3961.705705 -477417.6547 5344.079924
 2031.633827 -477425.3239 5727.465005
 636.742384 -477426.7941 5926.392223
 -636.7557085 -477426.7941 5926.390466
 -2031.648324 -477425.3239 5727.462387
 -3961.72211 -477417.6546 5344.075147
 -5667.902925 -477403.8815 5027.936169
 0 0 -0
 0 0 0
 9824.148584 -477322.7068 6196.042708
 5756.91761 -477384.0012 6576.062914
 2638.437108 -477401.0251 7291.854581
 900.8486754 -477403.3304 7557.769039
 -900.8620475 -477403.3304 7557.768738
 -2638.451045 -477401.0251 7291.852894
 -5756.93434 -477384.001 6576.060229
 -9824.166697 -477322.7065 6196.039897
 0 0 -0
 0 0 0
 0 0 0
 0 0 0
 3399.089409 -477378.0077 8399.719321
 1302.690538 -477386.1635 8522.042103