# OOMMF OVF 2.0
#
# Segment count: 1
#
# Begin: Segment
# Begin: Header
#
# Title: Oxs_MinDriver::Magnetization
# Desc: Oxs vector field output
# Desc:  MIF source file: F:/Bogdan/UNIC/2022/Master_degree/Samples/Cylinder0_5000 1.mif
# Desc:  Iteration: 921, State id: 12057
# Desc:  Stage: 4, Stage iteration: 45
# Desc:  Stage simulation time: 0 s
# Desc:  Total simulation time: -2 s
# meshunit: m
# meshtype: rectangular
# xbase: -8.9999999999999995e-09
# ybase: -8.9999999999999995e-09
# zbase: -2.0999999999999999e-08
# xnodes: 10
# ynodes: 10
# znodes: 22
# xstepsize: 2.0000000000000001e-09
# ystepsize: 2.0000000000000001e-09
# zstepsize: 2.0000000000000001e-09
# xmin: -1e-08
# ymin: -1e-08
# zmin: -2.1999999999999998e-08
# xmax: 1e-08
# ymax: 1e-08
# zmax: 2.2000000000000005e-08
# valuedim: 3
# valuelabels: Magnetization_x Magnetization_y Magnetization_z
# valueunits: A/m A/m A/m
#
# End: Header
#
# Begin: Data Text
 0 0 0
 0 0 0
 0 0 0
 8332.11255 31437.82763 476355.0254
 3138.201536 31657.47537 476403.0093
 -3138.201931 31657.47537 476403.0093
 -8332.112942 31437.82763 476355.0254
 0 0 -0
 0 0 -0
 0 0 -0
 0 0 0
 23347.64693 23347.64409 476320.9487
 18562.71742 24341.42824 476481.6803
 10987.20779 26430.18218 476605.2854
 3714.184023 26997.54565 476685.6497
 -3714.184422 26997.54564 476685.6497
 -10987.20818 26430.18219 476605.2853
 -18562.71782 24341.42824 476481.6803
 -23347.64732 23347.64409 476320.9487
 0 0 -0
 0 0 0
 24341.43111 18562.71454 476481.6803
 19162.49186 19162.48895 476694.3142
 11882.08103 19984.13177 476897.6011
 4018.872968 20347.856 477013.2962
 -4018.873369 20347.85601 477013.2962
 -11882.08143 19984.13176 476897.6011
 -19162.49225 19162.48896 476694.3142
 -24341.43151 18562.71453 476481.6803
 0 0 -0
 31437.8305 8332.109679 476355.0252
 26430.18508 10987.20489 476605.2853
 19984.13469 11882.0781 476897.601
 12369.90177 12369.89882 477143.4191
 4181.916731 12585.88192 477279.7696
 -4181.917136 12585.88191 477279.7696
 -12369.90217 12369.89883 477143.4191
 -19984.13509 11882.0781 476897.601
 -26430.18547 10987.20489 476605.2852
 -31437.83089 8332.109679 476355.0252
 31657.47824 3138.198647 476403.0091
 26997.54855 3714.181104 476685.6496
 20347.85894 4018.870027 477013.2961
 12585.88488 4181.913764 477279.7695
 4254.022092 4254.019115 477426.0968
 -4254.022498 4254.019124 477426.0968
 -12585.88529 4181.913756 477279.7695
 -20347.85934 4018.870033 477013.296
 -26997.54895 3714.1811 476685.6496
 -31657.47864 3138.198648 476403.0091
 31657.47825 -3138.204829 476403.0091
 26997.54855 -3714.187338 476685.6495
 20347.85894 -4018.876319 477013.296
 12585.88488 -4181.920099 477279.7695
 4254.022096 -4254.025475 477426.0968
 -4254.022503 -4254.025482 477426.0967
 -12585.88528 -4181.920092 477279.7695
 -20347.85934 -4018.876325 477013.296
 -26997.54895 -3714.187335 476685.6495
 -31657.47864 -3138.204831 476403.009
 31437.83052 -8332.115829 476355.0251
 26430.18508 -10987.2111 476605.2851
 19984.1347 -11882.08437 476897.6009
 12369.90177 -12369.90513 477143.419
 4181.916728 -12585.88825 477279.7694
 -4181.917132 -12585.88824 477279.7694
 -12369.90218 -12369.90513 477143.419
 -19984.13509 -11882.08436 476897.6009
 -26430.18548 -10987.2111 476605.2851
 -31437.83091 -8332.115829 476355.0251
 0 0 0
 24341.43114 -18562.72073 476481.6801
 19162.49188 -19162.49518 476694.314
 11882.08104 -19984.13802 476897.6008
 4018.872972 -20347.86228 477013.2959
 -4018.873374 -20347.86228 477013.2959
 -11882.08144 -19984.13802 476897.6008
 -19162.49227 -19162.49518 476694.314
 -24341.43153 -18562.72073 476481.68
 0 0 -0
 0 0 0
 23347.64699 -23347.65022 476320.9484
 18562.71745 -24341.4344 476481.68
 10987.2078 -26430.18837 476605.285
 3714.184025 -26997.55185 476685.6494
 -3714.184423 -26997.55185 476685.6494
 -10987.20819 -26430.18837 476605.285
 -18562.71784 -24341.4344 476481.68
 -23347.64738 -23347.65023 476320.9484
 0 0 -0
 0 0 0
 0 0 0
 0 0 0
 8332.112567 -31437.83378 476355.025
 3138.201544 -31657.48151 476403.0089
 -3138.201938 -31657.48151 476403.0089
 -8332.112959 -31437.83378 476355.025
 0 0 -0
 0 0 -0
 0 0 -0
 0 0 0
 0 0 0
 0 0 0
 6973.608688 27156.70289 476640.0671
 2685.395217 27360.01621 476671.8887
 -2685.395597 27360.01621 476671.8887
 -6973.609065 27156.70289 476640.0671
 0 0 -0
 0 0 -0
 0 0 -0
 0 0 0
 20131.95152 20131.94876 476614.3939
 16219.77406 21067.92466 476723.1196
 9577.040726 23172.9106 476805.1675
 3257.520469 23818.5377 476858.4036
 -3257.520851 23818.53772 476858.4036
 -9577.041108 23172.91059 476805.1675
 -16219.77444 21067.92467 476723.1196
 -20131.9519 20131.94876 476614.3939
 0 0 -0
 0 0 0
 21067.92745 16219.77126 476723.1196
 16904.8233 16904.82048 476865.1018
 10572.19744 17801.00463 477014.9098
 3591.385359 18219.69065 477102.7312
 -3591.385747 18219.69062 477102.7312
 -10572.19782 17801.00466 477014.9098
 -16904.82369 16904.82046 476865.1018
 -21067.92783 16219.77126 476723.1196
 0 0 -0
 27156.70569 6973.605898 476640.067
 23172.91342 9577.037896 476805.1675
 17801.00748 10572.19459 477014.9098
 11119.86166 11119.85879 477204.9546
 3774.698665 11366.0793 477313.7702
 -3774.699052 11366.07933 477313.7702
 -11119.86205 11119.85876 477204.9546
 -17801.00786 10572.19461 477014.9097
 -23172.9138 9577.037885 476805.1675
 -27156.70606 6973.605901 476640.067
 27360.01901 2685.392402 476671.8885
 23818.54054 3257.517641 476858.4035
 18219.6935 3591.382486 477102.7311
 11366.08218 3774.695789 477313.7701
 3856.472111 3856.469218 477432.8503
 -3856.472503 3856.469191 477432.8503
 -11366.08257 3774.695814 477313.7701
 -18219.69389 3591.382467 477102.7311
 -23818.54091 3257.517653 476858.4035
 -27360.01939 2685.392398 476671.8885
 27360.01902 -2685.398414 476671.8885
 23818.54054 -3257.523702 476858.4035
 18219.69349 -3591.388597 477102.7311
 11366.0822 -3774.701947 477313.7701
 3856.472095 -3856.475393 477432.8503
 -3856.472483 -3856.475372 477432.8503
 -11366.08259 -3774.701966 477313.7701
 -18219.69387 -3591.388582 477102.7311
 -23818.54093 -3257.523712 476858.4035
 -27360.01939 -2685.398411 476671.8885
 27156.70571 -6973.611881 476640.0669
 23172.91343 -9577.043934 476805.1673
 17801.00749 -10572.20069 477014.9096
 11119.86166 -11119.86491 477204.9545
 3774.69868 -11366.08546 477313.77
 -3774.699071 -11366.08547 477313.77
 -11119.86204 -11119.8649 477204.9545
 -17801.00788 -10572.2007 477014.9096
 -23172.9138 -9577.043928 476805.1673
 -27156.70609 -6973.611884 476640.0669
 0 0 0
 21067.92749 -16219.77729 476723.1194
 16904.82332 -16904.82652 476865.1016
 10572.19745 -17801.01072 477014.9096
 3591.38535 -18219.69674 477102.731
 -3591.385735 -18219.69673 477102.731
 -10572.19784 -17801.01073 477014.9096
 -16904.8237 -16904.82652 476865.1015
 -21067.92787 -16219.77729 476723.1194
 0 0 -0
 0 0 0
 20131.9516 -20131.95474 476614.3936
 16219.7741 -21067.93065 476723.1193
 9577.040732 -23172.91662 476805.1673
 3257.52048 -23818.54375 476858.4033
 -3257.520863 -23818.54375 476858.4033
 -9577.041111 -23172.91662 476805.1672
 -16219.77448 -21067.93066 476723.1193
 -20131.95197 -20131.95474 476614.3936
 0 0 -0
 0 0 0
 0 0 0
 0 0 0
 6973.608712 -27156.70889 476640.0668
 2685.395224 -27360.0222 476671.8883
 -2685.395603 -27360.0222 476671.8883
 -6973.60909 -27156.70889 476640.0668
 0 0 -0
 0 0 -0
 0 0 -0
 0 0 0
 0 0 0
 0 0 0
 5550.878973 22026.30148 476923.3702
 2150.711938 22197.90113 476942.8676
 -2150.712292 22197.90114 476942.8676
 -5550.879327 22026.30147 476923.3702
 0 0 -0
 0 0 -0
 0 0 -0
 0 0 0
 16322.1074 16322.10475 476905.7024
 13220.16224 17116.30292 476973.9309
 7794.271421 18935.58319 477024.6999
 2656.736404 19535.78405 477056.7746
 -2656.736761 19535.78402 477056.7746
 -7794.271774 18935.58321 477024.6999
 -13220.16259 17116.30291 476973.9309
 -16322.10775 16322.10476 476905.7024
 0 0 -0
 0 0 0
 17116.30559 13220.15954 476973.9309
 13866.22187 13866.21918 477061.1357
 8728.482794 14712.65295 477157.4402
 2975.813125 15127.60078 477215.016
 -2975.813482 15127.60082 477215.016
 -8728.483157 14712.65291 477157.4402
 -13866.22222 13866.2192 477061.1356
 -17116.30595 13220.15953 476973.9309
 0 0 -0
 22026.30417 5550.876296 476923.3701
 18935.58589 7794.26873 477024.6998
 14712.65568 8728.480054 477157.4402
 9269.119499 9269.116767 477284.0226
 3159.990832 9520.526414 477358.6129
 -3159.991197 9520.526364 477358.6129
 -9269.119852 9269.116811 477284.0226
 -14712.65604 8728.480022 477157.4401
 -18935.58624 7794.268749 477024.6998
 -22026.30452 5550.876293 476923.3701
 22197.90382 2150.70925 476942.8675
 19535.78676 2656.733671 477056.7745
 15127.60352 2975.810412 477215.016
 9520.529166 3159.988058 477358.6129
 3244.509298 3244.506541 477441.9521
 -3244.509657 3244.506587 477441.9521
 -9520.529537 3159.988018 477358.6129
 -15127.60387 2975.810444 477215.016
 -19535.78712 2656.733651 477056.7745
 -22197.90417 2150.709257 476942.8674
 22197.90384 -2150.715003 476942.8674
 19535.78675 -2656.739459 477056.7745
 15127.60355 -2975.816251 477215.0159
 9520.529133 -3159.993925 477358.6128
 3244.509343 -3244.512439 477441.9521
 -3244.50971 -3244.512473 477441.9521
 -9520.529485 -3159.993894 477358.6128
 -15127.60392 -2975.816276 477215.0159
 -19535.78709 -2656.739443 477056.7745
 -22197.90419 -2150.715009 476942.8674
 22026.30419 -5550.882022 476923.3701
 18935.58592 -7794.274511 477024.6997
 14712.65567 -8728.485864 477157.44
 9269.119536 -9269.12263 477284.0224
 3159.990794 -9520.532269 477358.6128
 -3159.991153 -9520.532248 477358.6128
 -9269.119905 -9269.12265 477284.0224
 -14712.65601 -8728.485848 477157.44
 -18935.58628 -7794.274522 477024.6997
 -22026.30454 -5550.882021 476923.3701
 0 0 0
 17116.30563 -13220.16531 476973.9307
 13866.22192 -13866.22498 477061.1355
 8728.482782 -14712.65875 477157.44
 2975.813159 -15127.60663 477215.0158
 -2975.813521 -15127.60664 477215.0158
 -8728.483135 -14712.65874 477157.44
 -13866.22228 -13866.22498 477061.1355
 -17116.30598 -13220.16531 476973.9307
 0 0 -0
 0 0 0
 16322.10749 -16322.11049 476905.7022
 13220.16227 -17116.30866 476973.9307
 7794.271451 -18935.58897 477024.6997
 2656.73639 -19535.78982 477056.7744
 -2656.736746 -19535.78982 477056.7744
 -7794.271809 -18935.58897 477024.6997
 -13220.16263 -17116.30866 476973.9307
 -16322.10784 -16322.11049 476905.7022
 0 0 -0
 0 0 0
 0 0 0
 0 0 0
 5550.878997 -22026.30724 476923.37
 2150.711954 -22197.90688 476942.8673
 -2150.712309 -22197.90688 476942.8673
 -5550.87935 -22026.30724 476923.37
 0 0 -0
 0 0 -0
 0 0 -0
 0 0 0
 0 0 0
 0 0 0
 4292.238721 17216.85714 477134.1822
 1665.316519 17350.72931 477145.7327
 -1665.316841 17350.7293 477145.7327
 -4292.239041 17216.85715 477134.1822
 0 0 -0
 0 0 -0
 0 0 -0
 0 0 0
 12759.15482 12759.1523 477122.9184
 10349.40918 13385.8436 477164.102
 6093.299514 14841.52104 477194.3758
 2077.610906 15337.07112 477213.0856
 -2077.611228 15337.07116 477213.0856
 -6093.299841 14841.52101 477194.3757
 -10349.4095 13385.84361 477164.102
 -12759.15514 12759.1523 477122.9184
 0 0 -0
 0 0 0
 13385.84613 10349.40664 477164.102
 10886.26423 10886.26165 477215.7267
 6875.182315 11598.10379 477273.5978
 2348.680998 11957.07683 477308.4781
 -2348.681327 11957.07677 477308.4781
 -6875.182633 11598.10384 477273.5978
 -10886.26456 10886.26162 477215.7267
 -13385.84645 10349.40665 477164.102
 0 0 -0
 17216.85971 4292.236189 477134.1821
 14841.52361 6093.296929 477194.3757
 11598.10635 6875.179766 477273.5978
 7344.84526 7344.842637 477351.0007
 2511.244926 7569.205219 477397.3943
 -2511.245249 7569.205286 477397.3943
 -7344.845598 7344.842579 477351.0007
 -11598.10666 6875.179809 477273.5978
 -14841.52394 6093.296907 477194.3757
 -17216.86003 4292.236196 477134.1821
 17350.73188 1665.31395 477145.7326
 15337.0737 2077.608365 477213.0855
 11957.07943 2348.678363 477308.4781
 7569.207811 2511.242362 477397.3943
 2587.799845 2587.797205 477449.9742
 -2587.800179 2587.797143 477449.9742
 -7569.208126 2511.242417 477397.3943
 -11957.07977 2348.67832 477308.4781
 -15337.07401 2077.608392 477213.0855
 -17350.7322 1665.313943 477145.7326
 17350.73188 -1665.319397 477145.7326
 15337.07373 -2077.613844 477213.0855
 11957.07938 -2348.683871 477308.4781
 7569.207889 -2511.247909 477397.3942
 2587.799753 -2587.802755 477449.9742
 -2587.800077 -2587.802708 477449.9742
 -7569.20823 -2511.247953 477397.3942
 -11957.07969 -2348.683837 477308.4781
 -15337.07407 -2077.613866 477213.0855
 -17350.73219 -1665.319391 477145.7326
 17216.85974 -4292.241616 477134.1821
 14841.5236 -6093.302393 477194.3756
 11598.10641 -6875.185277 477273.5977
 7344.845203 -7344.848148 477351.0006
 2511.24501 -7569.210779 477397.3942
 -2511.245343 -7569.210809 477397.3942
 -7344.845518 -7344.848121 477351.0006
 -11598.10675 -6875.1853 477273.5977
 -14841.52392 -6093.30238 477194.3756
 -17216.86007 -4292.241621 477134.1821
 0 0 0
 13385.84619 -10349.41212 477164.1018
 10886.26423 -10886.26712 477215.7266
 6875.18238 -11598.10931 477273.5977
 2348.68094 -11957.08232 477308.478
 -2348.681263 -11957.08231 477308.478
 -6875.182713 -11598.10932 477273.5977
 -10886.26454 -10886.26711 477215.7266
 -13385.84652 -10349.41213 477164.1018
 0 0 -0
 0 0 0
 12759.15491 -12759.15774 477122.9183
 10349.40925 -13385.84905 477164.1018
 6093.299507 -14841.5265 477194.3756
 2077.610951 -15337.07662 477213.0854
 -2077.611277 -15337.07662 477213.0854
 -6093.299826 -14841.52649 477194.3756
 -10349.40957 -13385.84906 477164.1018
 -12759.15523 -12759.15775 477122.9183
 0 0 -0
 0 0 0
 0 0 0
 0 0 0
 4292.238759 -17216.86262 477134.182
 1665.316518 -17350.73477 477145.7325
 -1665.31684 -17350.73477 477145.7325
 -4292.239081 -17216.86263 477134.182
 0 0 -0
 0 0 -0
 0 0 -0
 0 0 0
 0 0 0
 0 0 0
 3247.396764 13111.95558 477272.8804
 1260.207371 13210.98256 477279.5335
 -1260.207655 13210.98258 477279.5335
 -3247.397049 13111.95557 477272.8804
 0 0 -0
 0 0 -0
 0 0 -0
 0 0 0
 9719.12286 9719.120483 477266.1193
 7882.758003 10191.49006 477290.1287
 4634.394461 11307.54112 477307.5876
 1579.671146 11691.27441 477318.2272
 -1579.671435 11691.27436 477318.2272
 -4634.394742 11307.54115 477307.5876
 -7882.758293 10191.49004 477290.1287
 -9719.123142 9719.120493 477266.1193
 0 0 -0
 0 0 0
 10191.49247 7882.755578 477290.1287
 8297.876124 8297.873733 477319.769
 5246.295251 8855.299294 477353.0469
 1793.641926 9140.407975 477373.1319
 -1793.64221 9140.408046 477373.1319
 -5246.295548 8855.299235 477353.0469
 -8297.8764 8297.873773 477319.769
 -10191.49276 7882.755565 477290.1287
 0 0 -0
 13111.95801 3247.394357 477272.8803
 11307.54353 4634.392077 477307.5876
 8855.301759 5246.292767 477353.0469
 5621.176874 5621.174477 477397.8174
 1924.744266 5803.108772 477424.8533
 -1924.744561 5803.108691 477424.8533
 -5621.177147 5621.174547 477397.8174
 -8855.302063 5246.292716 477353.0468
 -11307.54381 4634.392106 477307.5876
 -13111.9583 3247.394352 477272.8803
 13210.98499 1260.204972 477279.5335
 11691.27685 1579.668669 477318.2272
 9140.410404 1793.639552 477373.1319
 5803.111263 1924.741741 477424.8533
 1987.503679 1987.50127 477455.7267
 -1987.503962 1987.501346 477455.7267
 -5803.111569 1924.741674 477424.8533
 -9140.410671 1793.639603 477373.1319
 -11691.27715 1579.668638 477318.2272
 -13210.98527 1260.204982 477279.5334
 13210.98502 -1260.210101 477279.5334
 11691.27681 -1579.673818 477318.2272
 9140.410502 -1793.644736 477373.1319
 5803.111139 -1924.746937 477424.8533
 1987.503835 -1987.506493 477455.7267
 -1987.504132 -1987.506553 477455.7267
 -5803.11141 -1924.746883 477424.8533
 -9140.41081 -1793.644779 477373.1319
 -11691.27708 -1579.673792 477318.2271
 -13210.98531 -1260.210111 477279.5334
 13111.95803 -3247.399467 477272.8803
 11307.5436 -4634.397229 477307.5875
 8855.301699 -5246.297928 477353.0468
 5621.176996 -5621.179687 477397.8173
 1924.744133 -5803.113955 477424.8533
 -1924.744416 -5803.113917 477424.8533
 -5621.177299 -5621.179723 477397.8173
 -8855.301969 -5246.2979 477353.0468
 -11307.5439 -4634.397248 477307.5875
 -13111.95831 -3247.399464 477272.8803
 0 0 0
 10191.4925 -7882.760734 477290.1286
 8297.876215 -8297.878907 477319.7689
 5246.295187 -8855.30445 477353.0468
 1793.642035 -9140.413189 477373.1318
 -1793.642327 -9140.413208 477373.1318
 -5246.295464 -8855.304433 477353.0468
 -8297.876512 -8297.878923 477319.7689
 -10191.49278 -7882.760729 477290.1286
 0 0 -0
 0 0 0
 9719.122964 -9719.125624 477266.1192
 7882.758036 -10191.49519 477290.1286
 4634.394532 -11307.5463 477307.5875
 1579.671092 -11691.27956 477318.2271
 -1579.671376 -11691.27955 477318.2271
 -4634.394823 -11307.5463 477307.5875
 -7882.758318 -10191.49519 477290.1286
 -9719.123251 -9719.125631 477266.1192
 0 0 -0
 0 0 0
 0 0 0
 0 0 0
 3247.396786 -13111.96075 477272.8802
 1260.207403 -13210.98773 477279.5334
 -1260.207689 -13210.98773 477279.5334
 -3247.397069 -13111.96075 477272.8802
 0 0 -0
 0 0 -0
 0 0 -0
 0 0 0
 0 0 0
 0 0 0
 2408.949541 9767.946099 477357.9951
 934.7650973 9838.685712 477361.7054
 -934.7653424 9838.685694 477361.7054
 -2408.949783 9767.946111 477357.9951
 0 0 -0
 0 0 -0
 0 0 -0
 0 0 0
 7242.130712 7242.128456 477354.1394
 5869.761402 7587.327164 477367.6253
 3446.157003 8418.413399 477377.3409
 1174.020154 8704.104906 477383.2125
 -1174.020397 8704.104959 477383.2124
 -3446.157254 8418.413359 477377.3409
 -5869.761643 7587.327186 477367.6253
 -7242.130958 7242.128454 477354.1394
 0 0 -0
 0 0 0
 7587.329417 5869.759147 477367.6253
 6176.924352 6176.922027 477384.0828
 3905.05174 6594.104326 477402.4923
 1335.18022 6808.733209 477413.5835
 -1335.180471 6808.73313 477413.5835
 -3905.051974 6594.104393 477402.4923
 -6176.924611 6176.921984 477384.0828
 -7587.329654 5869.759167 477367.6253
 0 0 -0
 9767.948393 2408.94729 477357.9951
 8418.415714 3446.154673 477377.3409
 6594.106579 3905.049516 477402.4923
 4188.391517 4188.389136 477427.2574
 1434.839876 4326.915312 477442.2377
 -1434.840117 4326.915403 477442.2377
 -4188.391783 4188.389057 477427.2574
 -6594.106804 3905.049575 477402.4923
 -8418.415975 3446.154642 477377.3409
 -9767.948634 2408.947299 477357.9951
 9838.688018 934.7627941 477361.7053
 8704.107195 1174.017928 477383.2124
 6808.735554 1335.177822 477413.5835
 4326.917568 1434.837664 477442.2377
 1482.939199 1482.936798 477459.3942
 -1482.939456 1482.936711 477459.3942
 -4326.917794 1434.837741 477442.2377
 -6808.735826 1335.177763 477413.5835
 -8704.107421 1174.017964 477383.2124
 -9838.68827 934.7627833 477361.7053
 9838.688007 -934.7676128 477361.7053
 8704.10728 -1174.022768 477383.2124
 6808.735429 -1335.182677 477413.5835
 4326.917753 -1434.842548 477442.2377
 1482.938981 -1482.941677 477459.3942
 -1482.939221 -1482.941606 477459.3942
 -4326.918022 -1434.842612 477442.2377
 -6808.73565 -1335.182627 477413.5835
 -8704.107545 -1174.0228 477383.2124
 -9838.688245 -934.7676032 477361.7053
 9767.948442 -2408.952094 477357.995
 8418.41568 -3446.159504 477377.3409
 6594.106711 -3905.054384 477402.4922
 4188.391371 -4188.39399 477427.2573
 1434.840073 -4326.920215 477442.2376
 -1434.840328 -4326.920263 477442.2376
 -4188.3916 -4188.393947 477427.2573
 -6594.106978 -3905.05442 477402.4922
 -8418.415911 -3446.159484 477377.3408
 -9767.948692 -2408.952101 477357.995
 0 0 0
 7587.329505 -5869.764004 477367.6252
 6176.924316 -6176.926865 477384.0828
 3905.051878 -6594.109212 477402.4922
 1335.18008 -6808.738054 477413.5835
 -1335.180322 -6808.738029 477413.5835
 -3905.052136 -6594.109236 477402.4922
 -6176.924549 -6176.926848 477384.0828
 -7587.329756 -5869.764015 477367.6252
 0 0 -0
 0 0 0
 7242.1308 -7242.133292 477354.1393
 5869.761492 -7587.332006 477367.6252
 3446.156964 -8418.418242 477377.3408
 1174.020251 -8704.109792 477383.2124
 -1174.020499 -8704.109803 477383.2124
 -3446.157203 -8418.418234 477377.3408
 -5869.761742 -7587.332014 477367.6252
 -7242.131042 -7242.133294 477354.1393
 0 0 -0
 0 0 0
 0 0 0
 0 0 0
 2408.949592 -9767.950978 477357.995
 934.7650831 -9838.690565 477361.7053
 -934.7653268 -9838.690564 477361.7053
 -2408.949837 -9767.950981 477357.995
 0 0 -0
 0 0 -0
 0 0 -0
 0 0 0
 0 0 0
 0 0 0
 1746.972354 7103.664435 477407.9569
 677.7878256 7152.847653 477409.9378
 -677.7880263 7152.847671 477409.9378
 -1746.972556 7103.664425 477407.9569
 0 0 -0
 0 0 -0
 0 0 -0
 0 0 0
 5267.990171 5267.988049 477405.8733
 4266.114792 5513.659229 477413.1032
 2501.571585 6116.11974 477418.2721
 851.7346202 6322.280921 477421.3806
 -851.7348259 6322.280866 477421.3806
 -2501.571779 6116.119784 477418.2721
 -4266.115 5513.65921 477413.1032
 -5267.99037 5267.98806 477405.8733
 0 0 -0
 0 0 0
 5513.661395 4266.112613 477413.1032
 4485.976577 4485.974467 477421.8505
 2834.326439 4787.515675 477431.5842
 968.8119973 4942.864336 477437.4313
 -968.8121943 4942.864421 477437.4313
 -2834.326657 4787.515604 477431.5842
 -4485.976763 4485.974515 477421.8505
 -5513.661605 4266.112596 477413.1032
 0 0 -0
 7103.66662 1746.970197 477407.9569
 6116.121885 2501.569482 477418.2721
 4787.51791 2834.324181 477431.5842
 3040.004821 3040.002733 477444.644
 1041.359368 3140.784939 477452.5341
 -1041.35958 3140.784839 477452.5341
 -3040.005003 3040.00282 477444.644
 -4787.518138 2834.324119 477431.5842
 -6116.122069 2501.569518 477418.2721
 -7103.666828 1746.97019 477407.9569
 7152.84983 677.7856926 477409.9377
 6322.28313 851.7323736 477421.3805
 4942.866474 968.8099331 477437.4313
 3140.787204 1041.357059 477452.5341
 1076.470048 1076.467961 477461.573
 -1076.470242 1076.468059 477461.573
 -3140.787434 1041.356972 477452.5341
 -4942.866647 968.8099997 477437.4313
 -6322.283357 851.7323337 477421.3805
 -7152.850024 677.7857057 477409.9377
 7152.849872 -677.7902265 477409.9377
 6322.283047 -851.7369202 477421.3805
 4942.866641 -968.8145037 477437.4313
 3140.786986 -1041.361632 477452.5341
 1076.470318 -1076.472556 477461.573
 -1076.470532 -1076.472639 477461.573
 -3140.787165 -1041.361558 477452.5341
 -4942.866874 -968.8145617 477437.4313
 -6322.283227 -851.7368846 477421.3805
 -7152.850083 -677.7902386 477409.9377
 7103.666638 -1746.974715 477407.9569
 6116.121987 -2501.574036 477418.272
 4787.517796 -2834.328736 477431.5842
 3040.005027 -3040.007329 477444.6439
 1041.359135 -3140.789503 477452.5341
 -1041.359331 -3140.789445 477452.5341
 -3040.005252 -3040.007382 477444.6439
 -4787.517974 -2834.328695 477431.5842
 -6116.122207 -2501.574062 477418.272
 -7103.666836 -1746.97471 477407.9569
 0 0 0
 5513.661417 -4266.117176 477413.1032
 4485.976711 -4485.979045 477421.8505
 2834.326318 -4787.52023 477431.5841
 968.8121822 -4942.868945 477437.4312
 -968.8123913 -4942.868978 477437.4312
 -2834.326507 -4787.5202 477431.5841
 -4485.976928 -4485.979069 477421.8505
 -5513.66161 -4266.117167 477413.1032
 0 0 -0
 0 0 0
 5267.990283 -5267.992608 477405.8733
 4266.114812 -5513.663775 477413.1032
 2501.571693 -6116.124332 477418.272
 851.7345235 -6322.285482 477421.3805
 -851.7347227 -6322.285468 477421.3805
 -2501.571903 -6116.124346 477418.272
 -4266.115009 -5513.66377 477413.1032
 -5267.990488 -5267.992615 477405.8733
 0 0 -0
 0 0 0
 0 0 0
 0 0 0
 1746.97237 -7103.669026 477407.9569
 677.7878726 -7152.852243 477409.9377
 -677.7880751 -7152.852247 477409.9377
 -1746.972569 -7103.669025 477407.9569
 0 0 -0
 0 0 -0
 0 0 -0
 0 0 0
 0 0 0
 0 0 0
 1224.62833 4988.936589 477436.3644
 475.050114 5022.068342 477437.3513
 -475.0502723 5022.068323 477437.3513
 -1224.628485 4988.936601 477436.3644
 0 0 -0
 0 0 -0
 0 0 -0
 0 0 0
 3700.482093 3700.480057 477435.3194
 2994.312172 3869.554914 477438.9301
 1754.028464 4290.994607 477441.4959
 596.9012657 4434.38067 477443.0346
 -596.9014196 4434.380727 477443.0346
 -1754.028631 4290.994563 477441.4959
 -2994.312323 3869.554937 477438.9301
 -3700.482254 3700.480052 477435.3194
 0 0 -0
 0 0 0
 3869.556939 2994.310149 477438.9301
 3145.977452 3145.97534 477443.2709
 1986.193729 3355.660404 477448.0766
 678.6344308 3463.606815 477450.9547
 -678.6345964 3463.606727 477450.9547
 -1986.19387 3355.660479 477448.0766
 -3145.977629 3145.975291 477443.2709
 -3869.557087 2994.31017 477438.9301
 0 0 -0
 4988.93866 1224.626307 477436.3644
 4290.996708 1754.026348 477441.4959
 3355.662412 1986.191757 477448.0766
 2129.402771 2129.400596 477454.5032
 729.2030984 2199.543128 477458.3768
 -729.2032473 2199.543234 477458.3768
 -2129.402955 2129.400504 477454.5032
 -3355.66254 1986.191825 477448.0766
 -4290.996888 1754.026311 477441.4959
 -4988.938813 1224.626317 477436.3644
 5022.070431 475.0480301 477437.3513
 4434.382726 596.8992854 477443.0346
 3463.608948 678.6322369 477450.9547
 2199.545129 729.2011504 477458.3768
 753.6744556 753.6722622 477462.8103
 -753.6746264 753.6721544 477462.8103
 -2199.545258 729.2012459 477458.3768
 -3463.609142 678.6321641 477450.9547
 -4434.382857 596.8993299 477443.0346
 -5022.070599 475.0480165 477437.3513
 5022.070415 -475.0523114 477437.3513
 4434.382832 -596.9035825 477443.0346
 3463.608788 -678.6365427 477450.9547
 2199.545368 -729.2054774 477458.3768
 753.67417 -753.6765824 477462.8103
 -753.6743178 -753.6764887 477462.8103
 -2199.545557 -729.2055615 477458.3768
 -3463.608911 -678.6364775 477450.9547
 -4434.383017 -596.9036232 477443.0346
 -5022.070564 -475.0522988 477437.3513
 4988.938714 -1224.630577 477436.3644
 4290.99666 -1754.03064 477441.4959
 3355.662576 -1986.196078 477448.0766
 2129.40258 -2129.404902 477454.5031
 729.2033545 -2199.547474 477458.3768
 -729.2035231 -2199.547544 477458.3768
 -2129.402714 -2129.40484 477454.5031
 -3355.662763 -1986.196127 477448.0766
 -4290.996798 -1754.030612 477441.4959
 -4988.938878 -1224.630585 477436.3644
 0 0 0
 3869.557036 -2994.314469 477438.93
 3145.977398 -3145.979642 477443.2709
 1986.193902 -3355.664745 477448.0766
 678.6342485 -3463.61112 477450.9547
 -678.6344002 -3463.611078 477450.9547
 -1986.194077 -3355.664784 477448.0766
 -3145.977538 -3145.979615 477443.2709
 -3869.557203 -2994.314483 477438.93
 0 0 -0
 0 0 0
 3700.482178 -3700.484364 477435.3193
 2994.312272 -3869.559225 477438.93
 1754.028408 -4290.99892 477441.4959
 596.9013887 -4434.38502 477443.0345
 -596.9015502 -4434.385041 477443.0345
 -1754.028558 -4290.998903 477441.4959
 -2994.312436 -3869.559236 477438.93
 -3700.482332 -3700.484363 477435.3193
 0 0 -0
 0 0 0
 0 0 0
 0 0 0
 1224.628386 -4988.940941 477436.3644
 475.0500919 -5022.072671 477437.3513
 -475.0502483 -5022.072666 477437.3513
 -1224.628545 -4988.940946 477436.3644
 0 0 -0
 0 0 -0
 0 0 -0
 0 0 0
 0 0 0
 0 0 0
 805.5170756 3285.446146 477452.0167
 312.4248258 3306.52908 477452.4485
 -312.4249367 3306.529098 477452.4485
 -805.5171894 3285.446136 477452.0167
 0 0 -0
 0 0 -0
 0 0 -0
 0 0 0
 2437.338298 2437.336359 477451.5578
 1970.912833 2546.838603 477453.1395
 1153.647441 2823.375674 477454.2585
 392.4265641 2916.961115 477454.9284
 -392.4266809 2916.96106 477454.9284
 -1153.647543 2823.375719 477454.2585
 -1970.912953 2546.838583 477453.1395
 -2437.338407 2437.336368 477451.5578
 0 0 -0
 0 0 0
 2546.840584 1970.91084 477453.1395
 2069.208978 2069.207055 477455.0325
 1305.482949 2205.945364 477457.1193
 445.8798378 2276.237366 477458.366
 -445.8799426 2276.237455 477458.366
 -1305.483081 2205.94529 477457.1193
 -2069.209069 2069.207106 477455.0325
 -2546.840708 1970.91082 477453.1395
 0 0 -0
 3285.448148 805.5151037 477452.0167
 2823.377636 1153.645526 477454.2585
 2205.947409 1305.48088 477457.1193
 1398.862704 1398.860804 477459.9016
 478.862496 1444.532588 477461.5747
 -478.8626204 1444.532478 477461.5747
 -1398.862788 1398.8609 477459.9016
 -2205.947555 1305.48081 477457.1193
 -2823.377725 1153.645566 477454.2585
 -3285.448267 805.5150948 477452.0167
 3306.531076 312.4228796 477452.4485
 2916.963135 392.4245041 477454.9284
 2276.239322 445.8779643 477458.366
 1444.534654 478.8603819 477461.5747
 494.8019798 494.8000771 477463.4872
 -494.80208 494.8001921 477463.4872
 -1444.534801 478.8602798 477461.5747
 -2276.239395 445.8780429 477458.366
 -2916.963279 392.4244564 477454.9284
 -3306.531177 312.4228951 477452.4485
 3306.531114 -312.4269514 477452.4485
 2916.963062 -392.4285857 477454.9284
 2276.239477 -445.8820635 477458.366
 1444.534448 -478.8644829 477461.5747
 494.8022438 -494.8041938 477463.4872
 -494.80237 -494.8042976 477463.4872
 -1444.534528 -478.86439 477461.5747
 -2276.239629 -445.8821361 477458.366
 -2916.963145 -392.4285411 477454.9284
 -3306.531238 -312.4269661 477452.4485
 3285.448167 -805.5191624 477452.0167
 2823.377731 -1153.649615 477454.2585
 2205.947306 -1305.484971 477457.1193
 1398.862901 -1398.864924 477459.9016
 478.8622701 -1444.536685 477461.5747
 -478.8623724 -1444.536605 477461.5747
 -1398.863042 -1398.864996 477459.9016
 -2205.947387 -1305.484915 477457.1193
 -2823.377867 -1153.649649 477454.2585
 -3285.448274 -805.5191549 477452.0167
 0 0 0
 2546.840609 -1970.914943 477453.1395
 2069.209106 -2069.211167 477455.0325
 1305.482836 -2205.94946 477457.1193
 445.8800184 -2276.241501 477458.3659
 -445.8801388 -2276.241553 477458.3659
 -1305.48293 -2205.949414 477457.1193
 -2069.209238 -2069.211201 477455.0325
 -2546.840711 -1970.914929 477453.1395
 0 0 -0
 0 0 0
 2437.338406 -2437.34046 477451.5578
 1970.912856 -2546.842694 477453.1395
 1153.647546 -2823.379803 477454.2585
 392.4264706 -2916.965222 477454.9284
 -392.426579 -2916.965195 477454.9284
 -1153.647668 -2823.379826 477454.2585
 -1970.912961 -2546.842683 477453.1395
 -2437.338521 -2437.340467 477451.5578
 0 0 -0
 0 0 0
 0 0 0
 0 0 0
 805.5170919 -3285.450283 477452.0167
 312.4248717 -3306.533213 477452.4484
 -312.4249849 -3306.533221 477452.4484
 -805.5172017 -3285.450278 477452.0167
 0 0 -0
 0 0 -0
 0 0 -0
 0 0 0
 0 0 0
 0 0 0
 456.4579746 1863.043167 477460.147
 177.0205163 1874.712665 477460.2867
 -177.0205838 1874.712648 477460.2867
 -456.4580383 1863.043177 477460.147
 0 0 -0
 0 0 -0
 0 0 -0
 0 0 0
 1382.275725 1382.273831 477459.9982
 1117.235379 1443.643284 477460.5104
 653.6237154 1600.038043 477460.8716
 222.2740439 1652.755496 477461.0877
 -222.2741055 1652.755548 477461.0877
 -653.6237927 1600.038002 477460.8716
 -1117.235437 1443.643305 477460.5104
 -1382.275795 1382.273825 477459.9982
 0 0 -0
 0 0 0
 1443.645174 1117.23349 477460.5104
 1172.327007 1172.325053 477461.1216