# OOMMF OVF 2.0
#
# Segment count: 1
#
# Begin: Segment
# Begin: Header
#
# Title: Oxs_MinDriver::Magnetization
# Desc: Oxs vector field output
# Desc:  MIF source file: F:/Bogdan/UNIC/2022/Master_degree/Samples/Cylinder0_5000 1.mif
# Desc:  Iteration: 508, State id: 3386
# Desc:  Stage: 0, Stage iteration: 508
# Desc:  Stage simulation time: -1 s
# Desc:  Total simulation time: -2 s
# meshunit: m
# meshtype: rectangular
# xbase: -8.9999999999999995e-09
# ybase: -8.9999999999999995e-09
# zbase: -2.0999999999999999e-08
# xnodes: 10
# ynodes: 10
# znodes: 22
# xstepsize: 2.0000000000000001e-09
# ystepsize: 2.0000000000000001e-09
# zstepsize: 2.0000000000000001e-09
# xmin: -1e-08
# ymin: -1e-08
# zmin: -2.1999999999999998e-08
# xmax: 1e-08
# ymax: 1e-08
# zmax: 2.2000000000000005e-08
# valuedim: 3
# valuelabels: Magnetization_x Magnetization_y Magnetization_z
# valueunits: A/m A/m A/m
#
# End: Header
#
# Begin: Data Text
 0 0 0
 0 0 0
 0 0 0
 -2405.174799 -475274.4002 -45610.64549
 -917.8375747 -475235.358 -46069.33215
 917.7988437 -475235.3582 -46069.33065
 2405.137434 -475274.4008 -45610.64103
 0 0 -0
 0 0 -0
 0 0 -0
 0 0 0
 -7118.939586 -476209.7327 -33844.97649
 -4022.529859 -476131.9555 -35412.58974
 -1784.306137 -475907.6658 -38478.32108
 -616.7096714 -475836.4976 -39384.24169
 616.6705968 -475836.4979 -39384.23859
 1784.266907 -475907.6665 -38478.31384
 4022.48959 -476131.9566 -35412.57941
 7118.900437 -476209.7342 -33844.96434
 0 0 -0
 0 0 0
 -3977.250076 -476688.9474 -26901.67573
 -2767.517355 -476639.9027 -27903.67906
 -1403.070134 -476568.4695 -29195.83105
 -440.022415 -476533.532 -29790.44396
 439.9816428 -476533.5322 -29790.44157
 1403.030054 -476568.4701 -29195.82417
 2767.477632 -476639.9035 -27903.66928
 3977.211647 -476688.9485 -26901.66313
 0 0 -0
 -2410.9926 -477313.1299 -11757.31248
 -1761.747343 -477197.3811 -15856.44886
 -1390.481268 -477148.1094 -17309.52341
 -808.3536206 -477119.5949 -18113.80707
 -260.3337314 -477106.2684 -18477.34136
 260.2927218 -477106.2685 -18477.33943
 808.3129803 -477119.5952 -18113.80137
 1390.441239 -477148.1098 -17309.51304
 1761.708744 -477197.3817 -15856.43698
 2410.954642 -477313.1304 -11757.30025
 -920.3937806 -477442.4049 -4446.815243
 -612.1601165 -477433.5947 -5353.427466
 -435.183779 -477427.8885 -5856.039728
 -258.9889917 -477424.5677 -6130.772094
 -84.92695825 -477423.0291 -6254.228175
 84.88542818 -477423.0291 -6254.225762
 258.9481112 -477424.5678 -6130.766024
 435.1434461 -477427.8887 -5856.028587
 612.119743 -477433.5949 -5353.414279
 920.3547295 -477442.4051 -4446.802162
 920.3422681 -477442.405 4446.815265
 612.1083937 -477433.5948 5353.427722
 435.1342216 -477427.8885 5856.041822
 258.9423196 -477424.5677 6130.778717
 84.88367755 -477423.029 6254.238951
 -84.92502539 -477423.0289 6254.240405
 -258.9840355 -477424.5676 6130.784348
 -435.1767254 -477427.8884 5856.050849
 -612.1508275 -477433.5946 5353.438106
 -920.3831659 -477442.4048 4446.826524
 2410.940502 -477313.1302 11757.31231
 1761.696164 -477197.3813 15856.44936
 1390.431887 -477148.1094 17309.52549
 808.3067286 -477119.5948 18113.81344
 260.2898952 -477106.2681 18477.35162
 -260.3330624 -477106.268 18477.3535
 -808.350034 -477119.5945 18113.81899
 -1390.475398 -477148.109 17309.53462
 -1761.7406 -477197.3808 15856.46002
 -2410.984025 -477313.1297 11757.32476
 0 0 0
 3977.200169 -476688.948 26901.67376
 2767.46821 -476639.9029 27903.68031
 1403.022604 -476568.4694 29195.8357
 439.9773077 -476533.5315 29790.45313
 -440.0238359 -476533.5313 29790.45523
 -1403.069154 -476568.4688 29195.84223
 -2767.513553 -476639.902 27903.69059
 -3977.245715 -476688.9468 26901.68756
 0 0 -0
 0 0 0
 7118.890239 -476209.7336 33844.9742
 4022.480646 -476131.9559 35412.59044
 1784.259213 -475907.6657 38478.32461
 616.6643697 -475836.497 39384.24966
 -616.7134992 -475836.4968 39384.2518
 -1784.306958 -475907.6649 38478.33156
 -4022.527004 -476131.9547 35412.60045
 -7118.935471 -476209.732 33844.98835
 0 0 -0
 0 0 0
 0 0 0
 0 0 0
 2405.129046 -475274.3999 45610.65029
 917.7923376 -475235.3573 46069.34026
 -917.8422822 -475235.357 46069.34265
 -2405.178669 -475274.3991 45610.65643
 0 0 -0
 0 0 -0
 0 0 -0
 0 0 0
 0 0 0
 0 0 0
 -2465.349606 -475632.7628 -41704.53517
 -944.8134844 -475594.7094 -42197.76044
 944.7788561 -475594.7097 -42197.7587
 2465.315494 -475632.7634 -41704.53051
 0 0 -0
 0 0 -0
 0 0 -0
 0 0 0
 -7503.846916 -476405.9033 -30870.35642
 -4071.223212 -476341.3349 -32468.895
 -1700.633295 -476130.0008 -35625.85473
 -590.1203588 -476055.1393 -36647.33825
 590.0847907 -476055.1396 -36647.33547
 1700.598246 -476130.0013 -35625.84956
 4071.186809 -476341.3356 -32468.88868
 7503.809471 -476405.9044 -30870.34769
 0 0 -0
 0 0 0
 -4004.813397 -476803.0757 -24792.333
 -2728.209243 -476750.8399 -25943.49209
 -1328.74194 -476678.1488 -27350.46918
 -409.9595934 -476641.0344 -28018.34307
 409.9237389 -476641.0346 -28018.3404
 1328.706075 -476678.1492 -27350.46377
 2728.17279 -476750.8406 -25943.48438
 4004.77692 -476803.0765 -24792.32351
 0 0 -0
 -2497.911707 -477342.6157 -10471.81825
 -1679.230834 -477237.9131 -14595.40204
 -1314.815229 -477187.5529 -16192.03286
 -753.3311388 -477157.855 -17078.7934
 -240.1140184 -477143.7759 -17482.29717
 240.0761343 -477143.776 -17482.2958
 753.2938832 -477157.8553 -17078.78801
 1314.778289 -477187.5533 -16192.02431
 1679.193838 -477237.9136 -14595.39144
 2497.87498 -477342.6161 -10471.80722
 -949.9588583 -477446.0788 -4026.250506
 -585.8237968 -477437.9843 -4949.670383
 -404.5019319 -477432.2112 -5494.668569
 -238.5351158 -477428.75 -5796.81549
 -77.78186248 -477427.1296 -5933.053357
 77.74338241 -477427.1297 -5933.051566
 238.4968027 -477428.7501 -5796.810234
 404.4635438 -477432.2113 -5494.659377
 585.786137 -477437.9845 -4949.659391
 949.9218183 -477446.079 -4026.238491
 949.9101021 -477446.0789 4026.251537
 585.7756298 -477437.9844 4949.672446
 404.4554733 -477432.2112 5494.672885
 238.4911301 -477428.7499 5796.822996
 77.74089123 -477427.1295 5933.064508
 -77.78104853 -477427.1295 5933.065825
 -238.5309323 -477428.7499 5796.827804
 -404.4949309 -477432.2111 5494.679879
 -585.8151671 -477437.9842 4949.681945
 -949.9491741 -477446.0787 4026.262219
 2497.862132 -477342.6159 10471.8195
 1679.182371 -477237.9132 14595.40404
 1314.768155 -477187.5529 16192.03672
 753.2867496 -477157.8548 17078.80107
 240.0721183 -477143.7756 17482.3077
 -240.1147771 -477143.7755 17482.30995
 -753.3291653 -477157.8546 17078.80489
 -1314.810941 -477187.5525 16192.04462
 -1679.224306 -477237.9128 14595.41371
 -2497.903298 -477342.6155 10471.83052
 0 0 0
 4004.76497 -476803.076 24792.33407
 2728.161967 -476750.84 25943.49621
 1328.697402 -476678.1486 27350.47574
 409.9175036 -476641.0339 28018.35296
 -409.9630581 -476641.0338 28018.35399
 -1328.742172 -476678.1482 27350.48063
 -2728.207142 -476750.8393 25943.5037
 -4004.809666 -476803.0751 24792.34561
 0 0 -0
 0 0 0
 7503.79797 -476405.904 30870.35783
 4071.175945 -476341.3349 32468.8998
 1700.588563 -476130.0004 35625.86121
 590.0780607 -476055.1387 36647.34678
 -590.1247838 -476055.1384 36647.34923
 -1700.635975 -476129.9999 35625.8655
 -4071.222051 -476341.3341 32468.90665
 -7503.84388 -476405.9025 30870.36901
 0 0 -0
 0 0 0
 0 0 0
 0 0 0
 2465.305805 -475632.7626 41704.541
 944.7711646 -475594.7087 42197.76941
 -944.8192836 -475594.7085 42197.77119
 -2465.354611 -475632.7619 41704.54609
 0 0 -0
 0 0 -0
 0 0 -0
 0 0 0
 0 0 0
 0 0 0
 -2608.509237 -476062.8299 -36458.86698
 -998.341454 -476031.9581 -36938.45515
 998.3118686 -476031.9583 -36938.45333
 2608.481488 -476062.8303 -36458.86305
 0 0 -0
 0 0 -0
 0 0 -0
 0 0 0
 -7951.385562 -476636.7467 -26945.47279
 -4305.18057 -476595.6905 -28458.46961
 -1782.677735 -476427.7305 -31389.66334
 -611.669704 -476362.7509 -32404.11539
 611.6397424 -476362.7511 -32404.114
 1782.648255 -476427.7308 -31389.66018
 4305.149339 -476595.691 -28458.4663
 7951.352352 -476636.7474 -26945.46924
 0 0 -0
 0 0 0
 -4230.114514 -476949.2449 -21757.64686
 -2841.789469 -476904.7723 -22926.70259
 -1357.335542 -476841.4682 -24336.0457
 -412.9714184 -476807.3358 -25029.28773
 412.9407766 -476807.3359 -25029.28607
 1357.305029 -476841.4685 -24336.04226
 2841.758076 -476904.7727 -22926.69804
 4230.081004 -476949.2454 -21757.64201
 0 0 -0
 -2655.814123 -477371.5581 -9011.849119
 -1762.757567 -477288.97 -12806.369
 -1342.935293 -477245.2663 -14388.31634
 -753.0737206 -477218.1516 -15301.63249
 -236.8352881 -477204.8442 -15727.42521
 236.8026405 -477204.8443 -15727.42286
 753.0414095 -477218.1518 -15301.62776
 1342.901624 -477245.2666 -14388.30994
 1762.724418 -477288.9703 -12806.3621
 2655.78046 -477371.5585 -9011.842118
 -1007.091092 -477450.245 -3481.471582
 -608.2200983 -477443.7844 -4351.335286
 -407.3230732 -477438.7124 -4897.068624
 -235.1391589 -477435.5021 -5211.272876
 -75.76991837 -477433.954 -5355.850538
 75.7351722 -477433.954 -5355.848993
 235.1039577 -477435.5021 -5211.267865
 407.2880291 -477438.7125 -4897.061372
 608.1853523 -477443.7845 -4351.326853
 1007.05714 -477450.2451 -3481.463248
 1007.047018 -477450.245 3481.476047
 608.1761604 -477443.7844 4351.339831
 407.2805709 -477438.7124 4897.074386
 235.0988926 -477435.502 5211.280861
 75.7323637 -477433.9539 5355.861247
 -75.76969547 -477433.9538 5355.863363
 -235.1358554 -477435.5019 5211.284906
 -407.3173084 -477438.7123 4897.08035
 -608.2126643 -477443.7843 4351.347055
 -1007.082409 -477450.2449 3481.483349
 2655.769539 -477371.5583 9011.854302
 1762.713157 -477288.97 12806.37438
 1342.891924 -477245.2662 14388.32298
 753.0329989 -477218.1514 15301.64079
 236.797322 -477204.8438 15727.43606
 -236.8380046 -477204.8438 15727.43691
 -753.0736886 -477218.1512 15301.64424
 -1342.93236 -477245.2659 14388.32809
 -1762.752447 -477288.9697 12806.38105
 -2655.806262 -477371.5579 9011.86169
 0 0 0
 4230.069349 -476949.245 21757.65339
 2841.746387 -476904.7722 22926.71022
 1357.295062 -476841.4679 24336.05483
 412.9332573 -476807.3353 25029.29851
 -412.9761422 -476807.3352 25029.29978
 -1357.337847 -476841.4676 24336.05759
 -2841.788831 -476904.7717 22926.71461
 -4230.111373 -476949.2444 21757.65962
 0 0 -0
 0 0 0
 7951.339885 -476636.747 26945.4797
 4305.137004 -476595.6904 28458.4774
 1782.637253 -476427.7301 31389.67203
 611.6310967 -476362.7503 32404.12578
 -611.6761158 -476362.7501 32404.12765
 -1782.681818 -476427.7297 31389.67563
 -4305.181253 -476595.6897 28458.48281
 -7951.383696 -476636.7459 26945.48634
 0 0 -0
 0 0 0
 0 0 0
 0 0 0
 2608.470627 -476062.8295 36458.87486
 998.3029401 -476031.9574 36938.46554
 -998.3485708 -476031.9572 36938.46686
 -2608.515561 -476062.8289 36458.87892
 0 0 -0
 0 0 -0
 0 0 -0
 0 0 0
 0 0 0
 0 0 0
 -2785.130206 -476452.3929 -30939.15969
 -1065.113673 -476431.2393 -31368.95067
 1065.086407 -476431.2394 -31368.94923
 2785.105097 -476452.3932 -30939.15744
 0 0 -0
 0 0 -0
 0 0 -0
 0 0 0
 -8400.541924 -476843.1541 -22845.31786
 -4618.385428 -476828.6251 -24186.85788
 -1949.154234 -476710.2169 -26747.73322
 -664.7146514 -476661.3104 -27666.30766
 664.6888232 -476661.3105 -27666.30698
 1949.129416 -476710.217 -26747.73202
 4618.35926 -476828.6254 -24186.85652
 8400.515093 -476843.1546 -22845.31763
 0 0 -0
 0 0 0
 -4538.865412 -477084.0983 -18494.13717
 -3055.280755 -477053.044 -19568.59141
 -1468.318517 -477005.708 -20863.12168
 -446.4268631 -476978.7836 -21515.38936
 446.4010838 -476978.7836 -21515.38927
 1468.292633 -477005.7082 -20863.12065
 3055.253969 -477053.0442 -19568.59018
 4538.838926 -477084.0987 -18494.13537
 0 0 -0
 -2840.635781 -477395.3648 -7580.749804
 -1930.198798 -477336.0016 -10885.18406
 -1453.757387 -477302.7074 -12324.09721
 -809.8224068 -477281.2859 -13182.92803
 -253.6142341 -477270.4184 -13592.44984
 253.586527 -477270.4185 -13592.44852
 809.7951225 -477281.286 -13182.92658
 1453.730245 -477302.7076 -12324.09435
 1930.170685 -477336.0017 -10885.18173
 2840.608462 -477395.365 -7580.747786
 -1076.34451 -477453.7823 -2932.330169
 -661.9145849 -477449.1944 -3701.338329
 -440.7396247 -477445.2972 -4202.999151
 -251.8665306 -477442.712 -4501.621326
 -80.66188453 -477441.4272 -4642.019141
 80.6313074 -477441.4273 -4642.018166
 251.837066 -477442.7121 -4501.619602
 440.7106738 -477445.2973 -4202.996116
 661.8859678 -477449.1945 -3701.334171
 1076.315794 -477453.7824 -2932.327
 1076.307313 -477453.7823 2932.338958
 661.8775848 -477449.1944 3701.346943
 440.7032535 -477445.2972 4203.008804
 251.8314578 -477442.7119 4501.632065
 80.62885639 -477441.4271 4642.030994
 -80.6619618 -477441.4271 4642.031396
 -251.864851 -477442.7119 4501.633665
 -440.7358711 -477445.2971 4203.01102
 -661.9085758 -477449.1943 3701.349581
 -1076.336725 -477453.7822 2932.342051
 2840.598799 -477395.3649 7580.759113
 1930.161362 -477336.0015 10885.19392
 1453.721142 -477302.7073 12324.10732
 809.7876625 -477281.2857 13182.93934
 253.5811868 -477270.4181 13592.46154
 -253.6169891 -477270.4181 13592.46211
 -809.8231455 -477281.2856 13182.94045
 -1453.755193 -477302.7071 12324.10881
 -1930.194039 -477336.0013 10885.19647
 -2840.629106 -477395.3646 7580.762547
 0 0 0
 4538.827522 -477084.0983 18494.14771
 3055.243116 -477053.0438 19568.60295
 1468.282667 -477005.7076 20863.13302
 446.3935033 -476978.7831 21515.40199
 -446.4323636 -476978.783 21515.40215
 -1468.321525 -477005.7074 20863.13476
 -3055.281048 -477053.0435 19568.60392
 -4538.863526 -477084.0979 18494.14953
 0 0 -0
 0 0 0
 8400.502806 -476843.1543 22845.32918
 4618.347192 -476828.625 24186.86817
 1949.118904 -476710.2164 26747.74437
 664.6800683 -476661.3098 27666.31946
 -664.7212933 -476661.3096 27666.3215
 -1949.158776 -476710.2161 26747.7469
 -4618.386968 -476828.6244 24186.87186
 -8400.541158 -476843.1535 22845.33166
 0 0 -0
 0 0 0
 0 0 0
 0 0 0
 2785.095279 -476452.3925 30939.17003
 1065.078384 -476431.2386 31368.96283
 -1065.12023 -476431.2384 31368.96353
 -2785.136087 -476452.392 30939.17369
 0 0 -0
 0 0 -0
 0 0 -0
 0 0 0
 0 0 0
 0 0 0
 -2958.60862 -476767.2051 -25615.42571
 -1131.667186 -476755.2752 -25980.72825
 1131.649892 -476755.2752 -25980.7273
 2958.591176 -476767.2053 -25615.42553
 0 0 -0
 0 0 -0
 0 0 -0
 0 0 0
 -8812.032058 -477008.211 -18904.65521
 -4934.757766 -477017.7085 -20040.58932
 -2134.2144 -476943.2218 -22191.88226
 -726.7851034 -476910.2356 -22977.60365
 726.7673511 -476910.2356 -22977.603
 2134.195632 -476943.2218 -22191.88322
 4934.737504 -477017.7086 -20040.59208
 8812.010156 -477008.2113 -18904.65816
 0 0 -0
 0 0 0
 -4852.141502 -477193.3972 -15322.84775
 -3295.544855 -477176.0264 -16249.631
 -1610.239755 -477145.2813 -17368.33292
 -492.8814375 -477126.5929 -17939.97572
 492.8617103 -477126.5929 -17939.97505
 1610.218913 -477145.2813 -17368.33463
 3295.523377 -477176.0265 -16249.63318
 4852.117877 -477193.3974 -15322.85093
 0 0 -0
 -3019.345241 -477413.614 -6244.676399
 -2115.807084 -477374.1448 -9017.791533
 -1595.575246 -477351.2079 -10254.25427
 -893.6853961 -477336.2525 -11007.93546
 -280.9265989 -477328.4522 -11372.82271
 280.9038698 -477328.4522 -11372.82284
 893.6618907 -477336.2526 -11007.93624
 1595.552151 -477351.208 -10254.25574
 2115.784141 -477374.1448 -9017.79335
 3019.323173 -477413.6141 -6244.679357
 -1144.546205 -477456.5127 -2416.561868
 -724.4159051 -477453.5979 -3067.303227
 -487.1816977 -477450.9134 -3501.317708
 -279.1525796 -477449.0707 -3765.400035
 -89.52579119 -477448.1328 -3891.501595
 89.49994525 -477448.1328 -3891.501375
 279.1264335 -477449.0707 -3765.401036
 487.1565229 -477450.9134 -3501.31797
 724.3917201 -477453.5979 -3067.305118
 1144.523542 -477456.5128 -2416.564404
 1144.515822 -477456.5127 2416.576104
 724.3854887 -477453.5979 3067.317335
 487.1508962 -477450.9134 3501.330301
 279.1223306 -477449.0706 3765.413317
 89.49716059 -477448.1327 3891.513781
 -89.52637739 -477448.1327 3891.514318
 -279.1504881 -477449.0706 3765.412766
 -487.1773715 -477450.9133 3501.329585
 -724.4096697 -477453.5979 3067.314785
 -1144.539661 -477456.5127 2416.573628
 3019.314951 -477413.614 6244.691088
 2115.776265 -477374.1446 9017.805265
 1595.544474 -477351.2077 10254.26801
 893.6551648 -477336.2523 11007.9486
 280.8988706 -477328.4519 11372.83541
 -280.9298052 -477328.4519 11372.83564
 -893.6858021 -477336.2522 11007.94823
 -1595.573542 -477351.2077 10254.26682
 -2115.802637 -477374.1446 9017.803547
 -3019.339384 -477413.6139 6244.688337
 0 0 0
 4852.109387 -477193.3971 15322.86308
 3295.514037 -477176.0261 16249.64535
 1610.210293 -477145.2809 17368.34705
 492.8543305 -477126.5924 17939.98804
 -492.8865546 -477126.5924 17939.98903
 -1610.24301 -477145.2808 17368.34653
 -3295.544959 -477176.026 16249.64407
 -4852.138895 -477193.3968 15322.8605
 0 0 -0
 0 0 0
 8811.999697 -477008.211 18904.67012
 4934.726686 -477017.7082 20040.60447
 2134.184858 -476943.2213 22191.89556
 726.7578957 -476910.235 22977.61662
 -726.7931954 -476910.2349 22977.61713
 -2134.219955 -476943.2211 22191.89688
 -4934.759922 -477017.7079 20040.60299
 -8812.031632 -477008.2105 18904.66868
 0 0 -0
 0 0 0
 0 0 0
 0 0 0
 2958.580159 -476767.2046 25615.43864
 1131.638829 -476755.2745 25980.74103
 -1131.677063 -476755.2744 25980.74252
 -2958.616534 -476767.2043 25615.4404
 0 0 -0
 0 0 -0
 0 0 -0
 0 0 0
 0 0 0
 0 0 0
 -3110.669223 -477005.6541 -20683.35001
 -1190.492673 -477001.2705 -20981.94351
 1190.481616 -477001.2705 -20981.94353
 3110.65706 -477005.6542 -20683.35007
 0 0 -0
 0 0 -0
 0 0 -0
 0 0 0
 -9163.832616 -477132.0701 -15260.51097
 -5216.136708 -477160.9928 -16187.96412
 -2304.607858 -477121.353 -17938.0762
 -785.1340534 -477101.5865 -18583.08441
 785.1215828 -477101.5865 -18583.08409
 2304.594311 -477121.353 -17938.07925
 5216.122541 -477160.9927 -16187.96995
 9163.816258 -477132.0701 -15260.51825
 0 0 -0
 0 0 0
 -5131.144471 -477275.9795 -12376.67528
 -3519.22361 -477270.1606 -13140.78384
 -1748.949515 -477253.5948 -14064.80517
 -539.6610289 -477242.2338 -14540.64279
 539.645283 -477242.2338 -14540.64349
 1748.933809 -477253.5947 -14064.80827
 3519.206362 -477270.1605 -13140.79052
 5131.126705 -477275.9794 -12376.68358
 0 0 -0
 -3175.129523 -477426.9782 -5026.963386
 -2286.544057 -477402.9781 -7282.825718
 -1734.202252 -477388.6805 -8301.299232
 -980.3568701 -477379.4853 -8929.567582
 -310.1192612 -477374.5514 -9236.495156
 310.1012638 -477374.5513 -9236.496388
 980.3385028 -477379.4853 -8929.573079
 1734.184253 -477388.6805 -8301.305687
 2286.525864 -477402.978 -7282.833869
 3175.113327 -477426.9782 -5026.970841
 -1204.559448 -477458.516 -1945.729814
 -783.0748435 -477456.9303 -2477.460218
 -533.9557789 -477455.2766 -2836.377675
 -308.3274083 -477454.1103 -3057.581239
 -99.34253851 -477453.5047 -3164.22404
 99.32244855 -477453.5047 -3164.225141
 308.3080309 -477454.1103 -3057.58543
 533.9369288 -477455.2766 -2836.383941
 783.0565803 -477456.9303 -2477.46704
 1204.542108 -477458.516 -1945.73619
 1204.535314 -477458.516 1945.748089
 783.0506666 -477456.9302 2477.478858
 533.9320015 -477455.2765 2836.395134
 308.3042398 -477454.1102 3057.596997
 99.32077646 -477453.5046 3164.236978
 -99.3423408 -477453.5046 3164.236252
 -308.325366 -477454.1102 3057.593564
 -533.9520168 -477455.2765 2836.390364
 -783.0697701 -477456.9302 2477.472067
 -1204.554049 -477458.5159 1945.741695
 3175.10575 -477426.9781 5026.982605
 2286.519567 -477402.9779 7282.8447
 1734.178033 -477388.6803 8301.316109
 980.3333037 -477379.4851 8929.584067
 310.0974134 -477374.5511 9236.507888
 -310.1209808 -477374.5511 9236.507846
 -980.356905 -477379.4851 8929.580822
 -1734.19995 -477388.6803 8301.312666
 -2286.540063 -477402.9779 7282.83879
 -3175.125012 -477426.9781 5026.975487
 0 0 0
 5131.119656 -477275.9792 12376.69365
 3519.199109 -477270.1603 13140.80137
 1748.926756 -477253.5944 14064.81985
 539.6398105 -477242.2335 14540.65569
 -539.6651357 -477242.2335 14540.65552
 -1748.951459 -477253.5944 14064.81825
 -3519.223452 -477270.1602 13140.79741
 -5131.142172 -477275.9791 12376.68934
 0 0 -0
 0 0 0
 9163.807841 -477132.07 15260.52869
 5216.112767 -477160.9925 16187.98132
 2304.585289 -477121.3525 17938.09152
 785.1130546 -477101.586 18583.09702
 -785.1409234 -477101.586 18583.09708
 -2304.612827 -477121.3525 17938.08941
 -5216.139177 -477160.9923 16187.9776
 -9163.832329 -477132.0696 15260.52499
 0 0 -0
 0 0 0
 0 0 0
 0 0 0
 3110.64692 -477005.6537 20683.36346
 1190.471201 -477001.27 20981.95651
 -1190.502212 -477001.2699 20981.95671
 -3110.676613 -477005.6535 20683.36282
 0 0 -0
 0 0 -0
 0 0 -0
 0 0 0
 0 0 0
 0 0 0
 -3234.769365 -477178.3083 -16194.74153
 -1238.703841 -477179.6285 -16429.8211
 1238.697197 -477179.6285 -16429.82142
 3234.762451 -477178.3083 -16194.74249
 0 0 -0
 0 0 -0
 0 0 -0
 0 0 0
 -9448.431828 -477220.9818 -11947.08954
 -5447.845178 -477264.5829 -12677.15047
 -2446.991899 -477250.8788 -14052.83602
 -834.344515 -477241.1538 -14562.15391
 834.3362772 -477241.1537 -14562.15532
 2446.984086 -477250.8787 -14052.84014
 5447.835671 -477264.5828 -12677.15999
 9448.4203 -477220.9817 -11947.10173
 0 0 -0
 0 0 0
 -5361.046466 -477335.5087 -9692.39825
 -3707.410765 -477338.5563 -10297.04314
 -1868.268733 -477332.9418 -11029.21146
 -580.4503002 -477327.3466 -11407.83024
 580.4396468 -477327.3465 -11407.83213
 1868.258527 -477332.9417 -11029.21777
 3707.399992 -477338.5561 -10297.05303
 5361.03406 -477335.5086 -9692.411387
 0 0 -0
 -3302.019548 -477436.4193 -3928.541931
 -2429.18515 -477423.7667 -5702.394303
 -1853.465414 -477416.0406 -6508.470366
 -1056.931306 -477411.3834 -7008.934988
 -336.3203665 -477408.7642 -7254.657973
 336.3074859 -477408.7642 -7254.660706
 1056.919297 -477411.3833 -7008.943052
 1853.452539 -477416.0404 -6508.482669
 2429.172137 -477423.7667 -5702.407126
 3302.006896 -477436.4193 -3928.555325
 -1253.68045 -477459.9322 -1520.757233
 -832.533178 -477459.3334 -1939.886242
 -574.7506234 -477458.4716 -2224.598076
 -334.5190075 -477457.8443 -2401.307573
 -108.302994 -477457.5107 -2486.965204
 108.2893792 -477457.5107 -2486.967298
 334.5056197 -477457.8443 -2401.314705
 574.7369343 -477458.4716 -2224.60678
 832.5192466 -477459.3334 -1939.897312
 1253.665779 -477459.9322 -1520.768544
 1253.660543 -477459.9322 1520.780771
 832.5140592 -477459.3333 1939.908342
 574.732591 -477458.4716 2224.617285
 334.5024919 -477457.8443 2401.32462
 108.2878306 -477457.5107 2486.978313
 -108.3025699 -477457.5107 2486.97598
 -334.5171605 -477457.8443 2401.319877
 -574.7473383 -477458.4716 2224.610407
 -832.5293786 -477459.3333 1939.898783
 -1253.675749 -477459.9322 1520.769289
 3302.000312 -477436.4193 3928.566068
 2429.16647 -477423.7666 5702.416625
 1853.447568 -477416.0403 6508.491049
 1056.914899 -477411.3832 7008.952132
 336.3050019 -477408.764 7254.670849
 -336.3214612 -477408.764 7254.669663
 -1056.930691 -477411.3832 7008.9479
 -1853.463435 -477416.0404 6508.484665
 -2429.182117 -477423.7666 5702.408098
 -3302.016473 -477436.4193 3928.55554
 0 0 0
 5361.027966 -477335.5085 9692.418988
 3707.393288 -477338.556 10297.06153
 1868.252563 -477332.9415 11029.22711
 580.4348569 -477327.3463 11407.84267
 -580.4534378 -477327.3463 11407.84142
 -1868.27064 -477332.9415 11029.22416
 -3707.41086 -477338.556 10297.05697
 -5361.045129 -477335.5084 9692.413208
 0 0 -0
 0 0 0
 9448.413748 -477220.9817 11947.10939
 5447.828491 -477264.5827 12677.16864
 2446.97679 -477250.8785 14052.85079
 834.3302684 -477241.1534 14562.1658
 -834.3493082 -477241.1534 14562.16528
 -2446.995268 -477250.8785 14052.84726
 -5447.846427 -477264.5826 12677.16407
 -9448.431216 -477220.9815 11947.10432
 0 0 -0
 0 0 0
 0 0 0
 0 0 0
 3234.754856 -477178.3079 16194.75471
 1238.689957 -477179.6282 16429.833
 -1238.710088 -477179.6282 16429.83153
 -3234.774425 -477178.3079 16194.75134
 0 0 -0
 0 0 -0
 0 0 -0
 0 0 0
 0 0 0
 0 0 0
 -3330.314719 -477298.4515 -12123.05529
 -1275.897728 -477303.852 -12299.4416
 1275.893319 -477303.852 -12299.44206
 3330.31102 -477298.4515 -12123.05824
 0 0 -0
 0 0 -0
 0 0 -0
 0 0 0
 -9666.944069 -477282.3569 -8942.776517
 -5627.275622 -477336.4985 -9490.641809
 -2557.988748 -477341.181 -10522.59065
 -872.8728372 -477338.6419 -10905.52081
 872.8672461 -477338.6418 -10905.52241
 2557.984136 -477341.1809 -10522.59702
 5627.269995 -477336.4983 -9490.654203
 9666.936384 -477282.3568 -8942.791613
 0 0 -0
 0 0 0
 -5539.156046 -477376.7235 -7256.232807
 -3854.701742 -477386.1631 -7711.283654
 -1962.67599 -477388.4636 -8262.811129
 -612.9386193 -477387.0717 -8548.650098
 612.9317657 -477387.0716 -8548.653346
 1962.670546 -477388.4635 -8262.818904
 3854.695837 -477386.1629 -7711.297484
 5539.148386 -477376.7233 -7256.248287
 0 0 -0
 -3399.653217 -477442.8617 -2937.259387
 -2540.391307 -477438.1611 -4268.495463
 -1947.840484 -477435.1338 -4875.469567
 -1118.350571 -477433.7863 -5253.593543
 -357.5039763 -477432.8776 -5439.749814
 357.4960665 -477432.8776 -5439.75236
 1118.34369 -477433.7863 -5253.602911
 1947.833612 -477435.1337 -4875.483572
 2540.382398 -477438.161 -4268.511962
 3399.643343 -477442.8616 -2937.276166
 -1291.572346 -477460.899 -1137.110615
 -871.2621666 -477460.997 -1452.078071
 -607.2521754 -477460.7047 -1666.742874
 -355.698238 -477460.4728 -1800.475349
 -115.6127555 -477460.3417 -1865.492651
 115.6028797 -477460.3417 -1865.495795
 355.6892949 -477460.4727 -1800.484122
 607.2425787 -477460.7046 -1666.754666
 871.2519855 -477460.997 -1452.092628
 1291.561745 -477460.899 -1137.127286
 1291.557323 -477460.899 1137.138591
 871.247949 -477460.997 1452.102934
 607.2392871 -477460.7046 1666.764038
 355.6866225 -477460.4727 1800.493023
 115.6017058 -477460.3416 1865.504982
 -115.6124365 -477460.3416 1865.502739
 -355.6965891 -477460.4727 1800.486312
 -607.2496942 -477460.7046 1666.754491
 -871.2594001 -477460.997 1452.089989
 -1291.569423 -477460.899 1137.122455
 3399.637987 -477442.8616 2937.286143
 2540.376973 -477438.1609 4268.520424
 1947.828149 -477435.1337 4875.490923
 1118.339607 -477433.7862 5253.610444
 357.4934286 -477432.8775 5439.76106
 -357.504947 -477432.8775 5439.759883
 -1118.350974 -477433.7862 5253.605309
 -1947.84014 -477435.1337 4875.482608
 -2540.390263 -477438.161 4268.508598
 -3399.651317 -477442.8616 2937.272514
 0 0 0
 5539.142192 -477376.7233 7256.254669
 3854.689636 -477386.1628 7711.303789
 1962.665142 -477388.4634 8262.825992
 612.9280602 -477387.0715 8548.661658
 -612.9412448 -477387.0715 8548.659786
 -1962.677656 -477388.4634 8262.822473
 -3854.703035 -477386.1628 7711.296781
 -5539.15636 -477376.7233 7256.246568
 0 0 -0
 0 0 0
 9666.930331 -477282.3568 8942.797322
 5627.263706 -477336.4983 9490.660345
 2557.978397 -477341.1807 10522.60454
 872.8628161 -477338.6416 10905.53052
 -872.8759983 -477338.6416 10905.52992
 -2557.991421 -477341.1808 10522.6009
 -5627.27707 -477336.4982 9490.654601
 -9666.944609 -477282.3567 8942.790303
 0 0 -0
 0 0 0
 0 0 0
 0 0 0
 3330.305864 -477298.4513 12123.06721
 1275.888831 -477303.8518 12299.45065
 -1275.901301 -477303.8518 12299.44978
 -3330.317592 -477298.4513 12123.06323
 0 0 -0
 0 0 -0
 0 0 -0
 0 0 0
 0 0 0
 0 0 0
 -3399.098666 -477378.0078 -8399.708868
 -1302.699613 -477386.1636 -8522.03281
 1302.695688 -477386.1636 -8522.034753
 3399.095554 -477378.0077 -8399.714336
 0 0 -0
 0 0 -0
 0 0 -0
 0 0 0
 -9824.162184 -477322.7068 -6196.02719
 -5756.929693 -477384.0012 -6576.04829
 -2638.446962 -477401.0253 -7291.84273
 -900.8576616 -477403.3305 -7557.759677
 900.8540896 -477403.3305 -7557.762173
 2638.444082 -477401.0252 -7291.849849
 5756.926328 -477384.0011 -6576.060775
 9824.157723 -477322.7067 -6196.042068
 0 0 -0
 0 0 0
 -5667.897732 -477403.8816 -5027.924278
 -3961.717113 -477417.6548 -5344.064454
 -2031.643753 -477425.324 -5727.452387
 -636.7508821 -477426.7942 -5926.382646
 636.7478254 -477426.7942 -5926.385699
 2031.640916 -477425.3239 -5727.460931
 3961.714483 -477417.6546 -5344.077767
 5667.894283 -477403.8815 -5027.94029
 0 0 -0
 -3469.932253 -477447.0603 -2033.581358
 -2621.015036 -477447.647 -2957.356916
 -2016.794009 -477447.7818 -3379.272558
 -1163.53936 -477448.6875 -3642.565482
 -373.1547321 -477448.9515 -3772.369645
 373.1500225 -477448.9515 -3772.373005
 1163.535452 -477448.6874 -3642.573674
 2016.789961 -477447.7817 -3379.286451
 2621.010024 -477447.6469 -2957.374355
 3469.925976 -477447.0603 -2033.600704
 -1318.885698 -477461.5293 -787.3023852
 -899.4013794 -477462.093 -1006.027313
 -631.0799338 -477462.1851 -1155.35328
 -371.3475159 -477462.2231 -1248.560636
 -121.0371192 -477462.2313 -1293.946043
 121.0309975 -477462.2313 -1293.948925
 371.3416597 -477462.2231 -1248.569511
 631.0742913 -477462.1851 -1155.367245
 899.3945685 -477462.093 -1006.044889
 1318.879142 -477461.5293 -787.3217024
 1318.875814 -477461.5293 787.3312008
 899.3917151 -477462.093 1006.053393
 631.0713356 -477462.1851 1155.375259
 371.3395818 -477462.2231 1248.577303
 121.0299125 -477462.2313 1293.956137
 -121.0371348 -477462.2313 1293.954256
 -371.3467559 -477462.2231 1248.568771
 -631.0786072 -477462.1851 1155.362264
 -899.3994164 -477462.093 1006.036796
 -1318.883527 -477461.5293 787.311798
 3469.921876 -477447.0603 2033.60964
 2621.005338 -477447.6469 2957.381978
 2016.785738 -477447.7817 3379.293027
 1163.532077 -477448.6874 3642.580115
 373.1477948 -477448.9514 3772.37968
 -373.1560964 -477448.9514 3772.377681
 -1163.539821 -477448.6874 3642.574478
 -2016.794671 -477447.7817 3379.282247
 -2621.014891 -477447.6469 2957.366809
 -3469.931027 -477447.0603 2033.591125
 0 0 0
 5667.888587 -477403.8815 5027.946142
 3961.709329 -477417.6546 5344.083504
 2031.636453 -477425.3239 5727.46658
 636.7446374 -477426.7941 5926.3921
 -636.753016 -477426.7941 5926.389892
 -2031.646 -477425.3239 5727.461089
 -3961.718666 -477417.6546 5344.074067
 -5667.899568 -477403.8815 5027.93435
 0 0 -0
 0 0 0
 9824.152767 -477322.7067 6196.047341
 5756.921535 -477384.0011 6576.065948
 2638.440125 -477401.0251 7291.8549
 900.8510485 -477403.3304 7557.768268
 -900.8599521 -477403.3304 7557.766315
 -2638.448814 -477401.0251 7291.85082
 -5756.931268 -477384.0011 6576.057672
 -9824.163463 -477322.7066 6196.037217
 0 0 -0
 0 0 0
 0 0 0
 0 0 0
 3399.091902 -477378.0076 8399.719424