# OOMMF OVF 2.0
#
# Segment count: 1
#
# Begin: Segment
# Begin: Header
#
# Title: Oxs_MinDriver::Magnetization
# Desc: Oxs vector field output
# Desc:  MIF source file: F:/Bogdan/UNIC/2022/Master_degree/Samples/Cylinder0_5000 1.mif
# Desc:  Iteration: 821, State id: 4076
# Desc:  Stage: 2, Stage iteration: 46
# Desc:  Stage simulation time: 0 s
# Desc:  Total simulation time: -2 s
# meshunit: m
# meshtype: rectangular
# xbase: -8.9999999999999995e-09
# ybase: -8.9999999999999995e-09
# zbase: -2.0999999999999999e-08
# xnodes: 10
# ynodes: 10
# znodes: 22
# xstepsize: 2.0000000000000001e-09
# ystepsize: 2.0000000000000001e-09
# zstepsize: 2.0000000000000001e-09
# xmin: -1e-08
# ymin: -1e-08
# zmin: -2.1999999999999998e-08
# xmax: 1e-08
# ymax: 1e-08
# zmax: 2.2000000000000005e-08
# valuedim: 3
# valuelabels: Magnetization_x Magnetization_y Magnetization_z
# valueunits: A/m A/m A/m
#
# End: Header
#
# Begin: Data Text
 0 0 0
 0 0 0
 0 0 0
 9077.99081 34558.16675 476125.1878
 3428.577403 34805.72264 476181.3497
 -3428.575411 34805.72263 476181.3497
 -9077.988828 34558.16673 476125.1879
 0 0 -0
 0 0 -0
 0 0 -0
 0 0 0
 25645.04682 25645.04337 476084.5877
 20434.42753 26762.48268 476275.2093
 12082.78482 29131.35821 476421.2858
 4086.998341 29797.09025 476515.7932
 -4086.996321 29797.09027 476515.7932
 -12082.7828 29131.35816 476421.2859
 -20434.42552 26762.48263 476275.2094
 -25645.04483 25645.04329 476084.5878
 0 0 -0
 0 0 0
 26762.48619 20434.42404 476275.2092
 21142.48446 21142.48093 476526.8745
 13135.48699 22107.83154 476770.987
 4447.551984 22545.58315 476910.6701
 -4447.549926 22545.5831 476910.6701
 -13135.48494 22107.83153 476770.9871
 -21142.48242 21142.48086 476526.8746
 -26762.48417 20434.42398 476275.2094
 0 0 -0
 34558.17031 9077.987392 476125.1876
 29131.36178 12082.78134 476421.2857
 22107.83512 13135.48345 476770.9869
 13721.30518 13721.3016 477069.5159
 4645.208473 13985.26956 477236.53
 -4645.206379 13985.2696 477236.53
 -13721.3031 13721.30153 477069.5159
 -22107.83306 13135.48343 476770.987
 -29131.35973 12082.78126 476421.2858
 -34558.16827 9077.987316 476125.1878
 34805.72622 3428.573975 476181.3495
 29797.09386 4086.994866 476515.793
 22545.58677 4447.548458 476910.67
 13985.27319 4645.204894 477236.5299
 4734.038839 4734.035224 477417.0599
 -4734.036707 4734.035165 477417.0599
 -13985.27108 4645.204901 477236.53
 -22545.58467 4447.548375 476910.6701
 -29797.09179 4086.994814 476515.7931
 -34805.72417 3428.573893 476181.3496
 34805.72623 -3428.578832 476181.3495
 29797.09389 -4086.999774 476515.7929
 22545.58676 -4447.553434 476910.6699
 13985.27325 -4645.209925 477236.5299
 4734.038812 -4734.040302 477417.0598
 -4734.036653 -4734.040267 477417.0599
 -13985.2711 -4645.210001 477236.5299
 -22545.58463 -4447.553457 476910.67
 -29797.09179 -4086.99986 476515.7931
 -34805.72416 -3428.578901 476181.3496
 34558.17035 -9077.992224 476125.1875
 29131.3618 -12082.78624 476421.2856
 22107.83519 -13135.48841 476770.9868
 13721.30519 -13721.30661 477069.5157
 4645.208552 -13985.27462 477236.5299
 -4645.206373 -13985.27467 477236.5299
 -13721.30303 -13721.30661 477069.5158
 -22107.83304 -13135.48849 476770.9869
 -29131.35969 -12082.78629 476421.2857
 -34558.16826 -9077.992298 476125.1877
 0 0 0
 26762.48626 -20434.42894 476275.209
 21142.48451 -21142.48586 476526.8743
 13135.48708 -22107.83652 476770.9868
 4447.55202 -22545.58817 476910.6699
 -4447.549835 -22545.58815 476910.6699
 -13135.4849 -22107.83658 476770.9868
 -21142.48236 -21142.48589 476526.8744
 -26762.48414 -20434.429 476275.2091
 0 0 -0
 0 0 0
 25645.04693 -25645.04823 476084.5874
 20434.42763 -26762.48757 476275.209
 12082.78489 -29131.36315 476421.2855
 4086.998441 -29797.09524 476515.7929
 -4086.996257 -29797.09526 476515.7929
 -12082.78272 -29131.36316 476421.2856
 -20434.42547 -26762.48761 476275.2091
 -25645.0448 -25645.04826 476084.5875
 0 0 -0
 0 0 0
 0 0 0
 0 0 0
 9077.990915 -34558.17168 476125.1875
 3428.577494 -34805.72758 476181.3494
 -3428.575319 -34805.72758 476181.3494
 -9077.988753 -34558.17169 476125.1875
 0 0 -0
 0 0 -0
 0 0 -0
 0 0 0
 0 0 0
 0 0 0
 7661.9087 30046.6608 476456.0469
 2953.498623 30273.5538 476494.1344
 -2953.496709 30273.55381 476494.1344
 -7661.906794 30046.66076 476456.0469
 0 0 -0
 0 0 -0
 0 0 -0
 0 0 0
 22260.74755 22260.74416 476425.0095
 17952.95348 23307.82478 476556.7207
 10589.93539 25672.41085 476655.6953
 3602.164486 26409.22206 476719.4654
 -3602.162544 26409.22199 476719.4654
 -10589.93345 25672.41086 476655.6954
 -17952.95154 23307.82471 476556.7208
 -22260.74562 22260.74409 476425.0096
 0 0 -0
 0 0 0
 23307.8282 17952.95006 476556.7207
 18737.24335 18737.2399 476728.1226
 11732.48341 19767.40471 476910.3373
 3988.322581 20255.43536 477017.486
 -3988.320609 20255.43544 477017.486
 -11732.48144 19767.4046 476910.3374
 -18737.2414 18737.23989 476728.1226
 -23307.82626 17952.94998 476556.7208
 0 0 -0
 30046.66429 7661.905356 476456.0467
 25672.41435 10589.93198 476655.6952
 19767.40821 11732.47995 476910.3373
 12372.12887 12372.12536 477143.3037
 4204.195833 12663.50984 477277.5205
 -4204.193817 12663.50972 477277.5205
 -12372.12687 12372.12542 477143.3037
 -19767.40622 11732.47984 476910.3373
 -25672.41238 10589.93195 476655.6953
 -30046.66232 7661.90527 476456.0469
 30273.55731 2953.495266 476494.1342
 26409.22558 3602.161089 476719.4652
 20255.4389 3988.319134 477017.4858
 12663.5134 4204.192332 477277.5204
 4301.737851 4301.734317 477425.2417
 -4301.735807 4301.734428 477425.2417
 -12663.51135 4204.192193 477277.5205
 -20255.43689 3988.319158 477017.4859
 -26409.22358 3602.16098 476719.4653
 -30273.55533 2953.495202 476494.1343
 30273.55734 -2953.500058 476494.1341
 26409.22554 -3602.165929 476719.4652
 20255.43901 -3988.324035 477017.4858
 12663.51329 -4204.197293 477277.5204
 4301.737992 -4301.739316 477425.2417
 -4301.735915 -4301.739451 477425.2417
 -12663.51123 -4204.197217 477277.5204
 -20255.43696 -3988.324169 477017.4859
 -26409.22352 -3602.165948 476719.4653
 -30273.55535 -2953.500145 476494.1343
 30046.66432 -7661.910126 476456.0467
 25672.41443 -10589.93681 476655.6951
 19767.40817 -11732.48484 476910.3371
 12372.12901 -12372.1303 477143.3035
 4204.195759 -12663.51483 477277.5203
 -4204.193667 -12663.51473 477277.5204
 -12372.12693 -12372.13043 477143.3036
 -19767.40612 -11732.48482 476910.3372
 -25672.41239 -10589.93691 476655.6952
 -30046.66231 -7661.910185 476456.0468
 0 0 0
 23307.82826 -17952.9549 476556.7205
 18737.24347 -18737.24477 476728.1224
 11732.4834 -19767.40961 476910.3371
 3988.322734 -20255.44032 477017.4858
 -3988.320631 -20255.44041 477017.4858
 -11732.48131 -19767.40957 476910.3372
 -18737.2414 -18737.24486 476728.1225
 -23307.82621 -17952.95493 476556.7206
 0 0 -0
 0 0 0
 22260.74767 -22260.74897 476425.0093
 17952.95355 -23307.8296 476556.7205
 10589.93551 -25672.41574 476655.6951
 3602.164517 -26409.22695 476719.4651
 -3602.162417 -26409.22692 476719.4652
 -10589.93342 -25672.4158 476655.6951
 -17952.95148 -23307.82962 476556.7206
 -22260.74562 -22260.74901 476425.0094
 0 0 -0
 0 0 0
 0 0 0
 0 0 0
 7661.908795 -30046.66567 476456.0466
 2953.498735 -30273.55868 476494.1341
 -2953.496641 -30273.5587 476494.1341
 -7661.906714 -30046.66567 476456.0466
 0 0 -0
 0 0 -0
 0 0 -0
 0 0 0
 0 0 0
 0 0 0
 6151.851201 24559.61277 476792.2519
 2384.791508 24750.33549 476816.1123
 -2384.789723 24750.33546 476816.1123
 -6151.849425 24559.61276 476792.2519
 0 0 -0
 0 0 -0
 0 0 -0
 0 0 0
 18189.05811 18189.05483 476770.5819
 14738.53807 19077.73834 476854.9955
 8680.116913 21123.79893 476917.5107
 2957.970643 21803.37532 476956.7428
 -2957.968839 21803.37538 476956.7428
 -8680.115102 21123.79885 476917.5107
 -14738.53627 19077.73831 476854.9955
 -18189.05631 18189.05475 476770.582
 0 0 -0
 0 0 0
 19077.74166 14738.53476 476854.9954
 15470.10032 15470.09697 476962.4968
 9743.682725 16433.7357 477081.6118
 3323.088064 16909.59301 477152.9043
 -3323.086221 16909.59289 477152.9043
 -9743.680902 16433.73576 477081.6118
 -15470.09849 15470.09687 476962.4969
 -19077.73985 14738.53472 476854.9955
 0 0 -0
 24559.61617 6151.84796 476792.2517
 21123.80232 8680.11361 476917.5106
 16433.73908 9743.679398 477081.6117
 10365.39639 10365.39297 477238.9218
 3536.069769 10656.75657 477331.9611
 -3536.067901 10656.75669 477331.9611
 -10365.39451 10365.39283 477238.9218
 -16433.73724 9743.679418 477081.6118
 -21123.80047 8680.113509 476917.5107
 -24559.61432 6151.84789 476792.2518
 24750.3389 2384.788252 476816.1121
 21803.37874 2957.967361 476956.7427
 16909.59645 3323.084711 477152.9042
 10656.75997 3536.066412 477331.961
 3634.585222 3634.581778 477436.3318
 -3634.583313 3634.581618 477436.3318
 -10656.75808 3536.066508 477331.961
 -16909.59456 3323.084567 477152.9042
 -21803.37687 2957.967347 476956.7428
 -24750.33704 2384.788162 476816.1122
 24750.33889 -2384.792972 476816.1121
 21803.37884 -2957.972128 476956.7427
 16909.59632 -3323.089526 477152.9041
 10656.76017 -3536.071275 477331.961
 3634.585034 -3634.58669 477436.3317
 -3634.583105 -3634.586545 477436.3318
 -10656.75824 -3536.071445 477331.961
 -16909.59442 -3323.089472 477152.9042
 -21803.37695 -2957.972252 476956.7427
 -24750.33702 -2384.793023 476816.1122
 24559.61623 -6151.852666 476792.2517
 21123.80229 -8680.118356 476917.5105
 16433.73925 -9743.684208 477081.6116
 10365.39626 -10365.39783 477238.9217
 3536.069992 -10656.76146 477331.9609
 -3536.06804 -10656.76161 477331.961
 -10365.39433 -10365.39774 477238.9217
 -16433.73733 -9743.684351 477081.6117
 -21123.80039 -8680.118361 476917.5106
 -24559.61434 -6151.852743 476792.2518
 0 0 0
 19077.74178 -14738.53954 476854.9953
 15470.10031 -15470.10175 476962.4967
 9743.682919 -16433.74055 477081.6116
 3323.087986 -16909.59787 477152.9041
 -3323.086026 -16909.59777 477152.9041
 -9743.680965 -16433.74067 477081.6116
 -15470.09838 -15470.10173 476962.4967
 -19077.73987 -14738.53961 476854.9953
 0 0 -0
 0 0 0
 18189.05823 -18189.05957 476770.5817
 14738.53821 -19077.74311 476854.9953
 8680.11693 -21123.80373 476917.5105
 2957.97081 -21803.38018 476956.7426
 -2957.968847 -21803.38025 476956.7426
 -8680.114978 -21123.8037 476917.5105
 -14738.53627 -19077.74317 476854.9953
 -18189.05631 -18189.05959 476770.5818
 0 0 -0
 0 0 0
 0 0 0
 0 0 0
 6151.851326 -24559.6176 476792.2516
 2384.791578 -24750.3403 476816.1121
 -2384.789619 -24750.34029 476816.1121
 -6151.849377 -24559.61762 476792.2516
 0 0 -0
 0 0 -0
 0 0 -0
 0 0 0
 0 0 0
 0 0 0
 4795.278413 19344.64032 477047.8608
 1861.212759 19493.66639 477062.2644
 -1861.211141 19493.6664 477062.2644
 -4795.2768 19344.64029 477047.8608
 0 0 -0
 0 0 -0
 0 0 -0
 0 0 0
 14327.73625 14327.73309 477033.8597
 11623.83244 15031.82602 477085.7386
 6835.692588 16677.19914 477123.6901
 2329.890768 17238.81465 477147.0069
 -2329.889129 17238.81458 477147.0069
 -6835.690958 16677.19916 477123.6901
 -11623.83079 15031.82595 477085.7387
 -14327.73462 14327.73302 477033.8598
 0 0 -0
 0 0 0
 15031.82924 11623.82923 477085.7386
 12231.22523 12231.22204 477150.5691
 7725.892545 13040.8159 477223.3429
 2639.591957 13450.67096 477267.2033
 -2639.590297 13450.67105 477267.2033
 -7725.890873 13040.8158 477223.3429
 -12231.22359 12231.22202 477150.5692
 -15031.82758 11623.82916 477085.7387
 0 0 -0
 19344.64361 4795.275278 477047.8607
 16677.20239 6835.689422 477123.69
 13040.8192 7725.889287 477223.3429
 8263.505725 8263.502506 477320.9615
 2826.363877 8521.411303 477379.5854
 -2826.362177 8521.411176 477379.5854
 -8263.504045 8263.502566 477320.9615
 -13040.81751 7725.889181 477223.3429
 -16677.20072 6835.689385 477123.6901
 -19344.64193 4795.275196 477047.8608
 19493.66968 1861.20962 477062.2643
 17238.81798 2329.887572 477147.0068
 13450.67423 2639.588773 477267.2032
 8521.414655 2826.360582 477379.5853
 2914.705052 2914.701809 477446.2067
 -2914.70333 2914.701933 477446.2067
 -8521.412926 2826.360436 477379.5853
 -13450.67253 2639.588804 477267.2032
 -17238.81627 2329.887465 477147.0068
 -19493.66799 1861.20956 477062.2644
 19493.66973 -1861.214297 477062.2643
 17238.81788 -2329.89228 477147.0068
 13450.67442 -2639.593524 477267.2031
 8521.414448 -2826.365389 477379.5853
 2914.705303 -2914.706637 477446.2067
 -2914.703548 -2914.706792 477446.2067
 -8521.41271 -2826.36529 477379.5853
 -13450.67268 -2639.59367 477267.2032
 -17238.81617 -2329.892284 477147.0068
 -19493.66803 -1861.21438 477062.2644
 19344.64363 -4795.279935 477047.8606
 16677.20253 -6835.694133 477123.6899
 13040.81909 -7725.894044 477223.3428
 8263.505966 -8263.507281 477320.9614
 2826.363703 -8521.41614 477379.5853
 -2826.361934 -8521.416014 477379.5853
 -8263.504197 -8263.507433 477320.9614
 -13040.81735 -7725.893993 477223.3428
 -16677.20079 -6835.694242 477123.69
 -19344.64191 -4795.279983 477047.8607
 0 0 0
 15031.82928 -11623.83396 477085.7385
 12231.22542 -12231.22677 477150.569
 7725.892467 -13040.82068 477223.3428
 2639.592186 -13450.67577 477267.2031
 -2639.590402 -13450.67588 477267.2031
 -7725.890696 -13040.82061 477223.3428
 -12231.22365 -12231.22688 477150.5691
 -15031.82754 -11623.83397 477085.7386
 0 0 -0
 0 0 0
 14327.73641 -14327.7378 477033.8596
 11623.8325 -15031.83074 477085.7385
 6835.692762 -16677.20392 477123.6899
 2329.89075 -17238.81944 477147.0067
 -2329.888965 -17238.81939 477147.0067
 -6835.690979 -16677.20399 477123.6899
 -11623.83073 -15031.83074 477085.7385
 -14327.73465 -14327.73784 477033.8596
 0 0 -0
 0 0 0
 0 0 0
 0 0 0
 4795.278505 -19344.6451 477047.8606
 1861.212885 -19493.67118 477062.2642
 -1861.211097 -19493.6712 477062.2643
 -4795.276728 -19344.6451 477047.8606
 0 0 -0
 0 0 -0
 0 0 -0
 0 0 0
 0 0 0
 0 0 0
 3654.104963 14837.15456 477219.423
 1418.558548 14947.91896 477227.8478
 -1418.557121 14947.91894 477227.8478
 -3654.103542 14837.15454 477219.423
 0 0 -0
 0 0 -0
 0 0 -0
 0 0 0
 10991.14598 10991.14291 477210.9186
 8915.335688 11525.00299 477241.6185
 5235.135709 12794.28617 477263.8378
 1783.684823 13231.10321 477277.3069
 -1783.683383 13231.10324 477277.3069
 -5235.134262 12794.28612 477263.8378
 -8915.33424 11525.00294 477241.6185
 -10991.14453 10991.14284 477210.9186
 0 0 -0
 0 0 0
 11525.00607 8915.332615 477241.6184
 9386.693573 9386.690434 477279.4269
 5934.433855 10022.68224 477321.9036
 2028.859015 10348.68021 477347.5252
 -2028.857546 10348.68014 477347.5252
 -5934.432397 10022.68225 477321.9036
 -9386.692103 9386.690371 477279.4269
 -11525.00462 8915.332554 477241.6185
 0 0 -0
 14837.15773 3654.101939 477219.4229
 12794.28935 5235.132612 477263.8378
 10022.68535 5934.430781 477321.9035
 6364.059387 6364.056193 477379.1667
 2179.495034 6573.015999 477413.7792
 -2179.493544 6573.016065 477413.7792
 -6364.057888 6364.056107 477379.1668
 -10022.68387 5934.43076 477321.9036
 -12794.28786 5235.132542 477263.8378
 -14837.15624 3654.101867 477219.4229
 14947.92216 1418.555494 477227.8477
 13231.10637 1783.681775 477277.3068
 10348.68344 2028.855879 477347.5252
 6573.019127 2179.491931 477413.7792
 2251.767239 2251.764021 477453.3803
 -2251.765714 2251.763917 477453.3803
 -6573.017617 2179.491978 477413.7792
 -10348.68193 2028.855781 477347.5252
 -13231.10487 1783.681739 477277.3069
 -14947.92066 1418.555418 477227.8477
 14947.92215 -1418.560165 477227.8477
 13231.10649 -1783.686468 477277.3068
 10348.6833 -2028.860622 477347.5252
 6573.019337 -2179.496694 477413.7791
 2251.767045 -2251.768833 477453.3803
 -2251.765503 -2251.768735 477453.3803
 -6573.017786 -2179.49682 477413.7792
 -10348.68178 -2028.860595 477347.5252
 -13231.10496 -1783.686567 477277.3068
 -14947.92064 -1418.560216 477227.8477
 14837.1578 -3654.106592 477219.4229
 12794.28933 -5235.137319 477263.8377
 10022.68553 -5934.435495 477321.9035
 6364.059259 -6364.060985 477379.1667
 2179.495261 -6573.020781 477413.7791
 -2179.49369 -6573.020895 477413.7791
 -6364.057709 -6364.060913 477379.1667
 -10022.68397 -5934.435614 477321.9035
 -12794.28779 -5235.137326 477263.8378
 -14837.15627 -3654.10666 477219.4229
 0 0 0
 11525.00621 -8915.337328 477241.6184
 9386.693569 -9386.695183 477279.4268
 5934.434057 -10022.68697 477321.9035
 2028.858934 -10348.68502 477347.5251
 -2028.857359 -10348.68494 477347.5251
 -5934.432473 -10022.68707 477321.9035
 -9386.692013 -9386.695158 477279.4268
 -11525.00466 -8915.337392 477241.6184
 0 0 -0
 0 0 0
 10991.14612 -10991.14763 477210.9184
 8915.335841 -11525.0077 477241.6183
 5235.135731 -12794.29095 477263.8377
 1783.684989 -13231.10799 477277.3068
 -1783.6834 -13231.10804 477277.3068
 -5235.134156 -12794.29092 477263.8377
 -8915.334261 -11525.00775 477241.6184
 -10991.14455 -10991.14764 477210.9185
 0 0 -0
 0 0 0
 0 0 0
 0 0 0
 3654.105093 -14837.15934 477219.4228
 1418.558616 -14947.92375 477227.8476
 -1418.557028 -14947.92373 477227.8476
 -3654.10351 -14837.15936 477219.4228
 0 0 -0
 0 0 -0
 0 0 -0
 0 0 0
 0 0 0
 0 0 0
 2727.545169 11122.52265 477326.64
 1058.789834 11202.14113 477331.3967
 -1058.788618 11202.14112 477331.3967
 -2727.543955 11122.52263 477326.64
 0 0 -0
 0 0 -0
 0 0 -0
 0 0 0
 8240.967977 8240.965015 477321.7408
 6679.991942 8633.647373 477339.1972
 3917.03925 9584.674983 477351.7174
 1333.846057 9911.709798 477359.2464
 -1333.844825 9911.709784 477359.2464
 -3917.038021 9584.674953 477351.7174
 -6679.990699 8633.647332 477339.1972
 -8240.966739 8240.964945 477321.7408
 0 0 -0
 0 0 0
 8633.650383 6679.988943 477339.1971
 7030.658821 7030.65583 477360.4623
 4444.197934 7508.994261 477384.2639
 1519.388304 7755.41781 477398.5926
 -1519.387054 7755.417807 477398.5926
 -4444.196678 7508.994239 477384.2639
 -7030.657573 7030.655766 477360.4624
 -8633.649132 6679.988893 477339.1972
 0 0 -0
 11122.52573 2727.542221 477326.64
 9584.678022 3917.036284 477351.7174
 7508.997342 4444.194896 477384.2639
 4770.185183 4770.182166 477416.3403
 1634.276962 4929.737927 477435.7529
 -1634.275683 4929.737904 477435.7529
 -4770.183913 4770.182136 477416.3403
 -7508.996063 4444.194864 477384.2639
 -9584.676753 3917.03621 477351.7174
 -11122.52445 2727.542156 477326.64
 11202.14421 1058.786882 477331.3967
 9911.712909 1333.843058 477359.2464
 7755.42086 1519.385312 477398.5926
 4929.741046 1634.273899 477435.7528
 1689.784447 1689.781412 477458.0197
 -1689.783148 1689.781428 477458.0197
 -4929.739738 1634.273854 477435.7529
 -7755.419572 1519.385272 477398.5926
 -9911.711612 1333.843002 477359.2464
 -11202.14292 1058.786815 477331.3967
 11202.14425 -1058.791591 477331.3966
 9911.712873 -1333.847797 477359.2464
 7755.420965 -1519.390071 477398.5926
 4929.74095 -1634.278705 477435.7528
 1689.784579 -1689.786228 477458.0197
 -1689.783247 -1689.786281 477458.0197
 -4929.73964 -1634.278691 477435.7528
 -7755.419636 -1519.390146 477398.5926
 -9911.711571 -1333.847832 477359.2464
 -11202.14294 -1058.791656 477331.3967
 11122.52578 -2727.54692 477326.6399
 9584.678123 -3917.04101 477351.7173
 7508.997318 -4444.199679 477384.2638
 4770.185328 -4770.186939 477416.3403
 1634.276895 -4929.742768 477435.7528
 -1634.275556 -4929.742725 477435.7528
 -4770.18397 -4770.187017 477416.3403
 -7508.995999 -4444.19967 477384.2638
 -9584.676786 -3917.041087 477351.7173
 -11122.52446 -2727.546968 477326.64
 0 0 0
 8633.650466 -6679.993709 477339.1971
 7030.658967 -7030.660576 477360.4623
 4444.197934 -7508.999082 477384.2638
 1519.388446 -7755.422607 477398.5926
 -1519.387079 -7755.422658 477398.5926
 -4444.196592 -7508.999057 477384.2638
 -7030.657603 -7030.660647 477360.4623
 -8633.649132 -6679.993727 477339.1971
 0 0 -0
 0 0 0
 8240.968144 -8240.969762 477321.7407
 6679.992041 -8633.652139 477339.1971
 3917.039387 -9584.679761 477351.7173
 1333.846088 -9911.714629 477359.2463
 -1333.844723 -9911.714608 477359.2463
 -3917.038014 -9584.679804 477351.7173
 -6679.990686 -8633.652147 477339.1971
 -8240.96679 -8240.969791 477321.7407
 0 0 -0
 0 0 0
 0 0 0
 0 0 0
 2727.545273 -11122.52748 477326.6399
 1058.789941 -11202.14594 477331.3966
 -1058.788567 -11202.14595 477331.3966
 -2727.543908 -11122.52748 477326.6399
 0 0 -0
 0 0 -0
 0 0 -0
 0 0 0
 0 0 0
 0 0 0
 1988.292736 8131.62241 477390.6102
 771.7192358 8187.340483 477393.1746
 -771.7182399 8187.340484 477393.1747
 -1988.291744 8131.622383 477390.6102
 0 0 -0
 0 0 -0
 0 0 -0
 0 0 0
 6026.004777 6026.001886 477387.9406
 4880.635743 6307.224841 477397.3917
 2858.406221 7000.482948 477404.1203
 972.7953162 7237.803952 477408.1474
 -972.7943108 7237.803913 477408.1474
 -2858.405208 7000.482954 477404.1203
 -4880.634728 6307.224776 477397.3917
 -6026.003757 6026.001833 477387.9406
 0 0 -0
 0 0 0
 6307.227759 4880.632834 477397.3917
 5133.09661 5133.093662 477408.8122
 3242.71316 5480.687999 477421.5309
 1108.288441 5659.946792 477429.1654
 -1108.287413 5659.946835 477429.1654
 -3242.712139 5480.687916 477421.5309
 -5133.095576 5133.093666 477408.8122
 -6307.226734 4880.632755 477397.3917
 0 0 -0
 8131.625404 1988.289865 477390.6102
 7000.485936 2858.403303 477404.1202
 5480.690952 3242.710237 477421.5309
 3480.506082 3480.503095 477438.628
 1192.306717 3597.097565 477448.9612
 -1192.305672 3597.097488 477448.9612
 -3480.505026 3480.503137 477438.628
 -5480.689911 3242.710132 477421.5309
 -7000.484881 2858.403287 477404.1203
 -8131.624345 1988.28979 477390.6102
 8187.3435 771.7163424 477393.1746
 7237.806946 972.7924124 477408.1473
 5659.949819 1108.285496 477429.1654
 3597.10053 1192.303766 477448.9612
 1232.98907 1232.986053 477460.816
 -1232.987993 1232.986107 477460.816
 -3597.099469 1192.303679 477448.9612
 -5659.94874 1108.285504 477429.1654
 -7237.805884 972.7923249 477408.1473
 -8187.342429 771.7162907 477393.1746
 8187.34352 -771.7211427 477393.1746
 7237.806971 -972.7972275 477408.1473
 5659.949827 -1108.290347 477429.1654
 3597.100562 -1192.308635 477448.9612
 1232.98907 -1232.990957 477460.8159
 -1232.987981 -1232.991011 477460.816
 -3597.099452 -1192.308625 477448.9612
 -5659.948753 -1108.290411 477429.1654
 -7237.805876 -972.7972668 477408.1473
 -8187.342441 -771.7212037 477393.1746
 8131.625464 -1988.294646 477390.6101
 7000.485987 -2858.408135 477404.1202
 5480.69102 -3242.715069 477421.5309
 3480.506114 -3480.507985 477438.6279
 1192.306766 -3597.102444 477448.9612
 -1192.305642 -3597.102428 477448.9612
 -3480.505021 -3480.50802 477438.6279
 -5480.689893 -3242.715108 477421.5309
 -7000.484897 -2858.408177 477404.1202
 -8131.624366 -1988.2947 477390.6102
 0 0 0
 6307.227875 -4880.637672 477397.3916
 5133.096693 -5133.098534 477408.8121
 3242.71325 -5480.692851 477421.5308
 1108.288494 -5659.951708 477429.1654
 -1108.28737 -5659.951726 477429.1654
 -3242.712104 -5480.692871 477421.5309
 -5133.095588 -5133.098555 477408.8122
 -6307.226753 -4880.637713 477397.3917
 0 0 -0
 0 0 0
 6026.004939 -6026.006729 477387.9406
 4880.635875 -6307.229671 477397.3916
 2858.406308 -7000.487848 477404.1202
 972.7954006 -7237.808837 477408.1473
 -972.7942552 -7237.808836 477408.1473
 -2858.405181 -7000.487863 477404.1202
 -4880.634734 -6307.229699 477397.3916
 -6026.003817 -6026.006749 477387.9406
 0 0 -0
 0 0 0
 0 0 0
 0 0 0
 1988.292853 -8131.627315 477390.6101
 771.719324 -8187.345392 477393.1746
 -771.7181801 -8187.345398 477393.1746
 -1988.29171 -8131.627322 477390.6101
 0 0 -0
 0 0 -0
 0 0 -0
 0 0 0
 0 0 0
 0 0 0
 1399.535546 5735.103079 477427.5036
 543.1242626 5772.865797 477428.7909
 -543.1234975 5772.865771 477428.7909
 -1399.53478 5735.103074 477427.5036
 0 0 -0
 0 0 -0
 0 0 -0
 0 0 0
 4250.701915 4250.699085 477426.156
 3440.170463 4445.308359 477430.912
 2012.750052 4932.53327 477434.2785
 684.6441308 5098.411995 477436.2876
 -684.6433512 5098.41205 477436.2876
 -2012.749279 4932.533191 477434.2785
 -3440.169672 4445.308349 477430.912
 -4250.701128 4250.699018 477426.156
 0 0 -0
 0 0 0
 4445.311231 3440.167597 477430.912
 3615.257464 3615.254606 477436.6253
 2282.180831 3858.155151 477442.9574
 779.6894861 3983.32409 477446.7473
 -779.6886964 3983.323971 477446.7473
 -2282.180027 3858.155228 477442.9574
 -3615.256675 3615.254487 477436.6253
 -4445.31043 3440.167579 477430.912
 0 0 -0
 5735.106018 1399.532719 477427.5036
 4932.536172 2012.74721 477434.2784
 3858.158087 2282.177926 477442.9574
 2448.544985 2448.542107 477451.4431
 838.5294456 2530.066418 477456.5603
 -838.5286264 2530.066556 477456.5603
 -2448.544181 2448.541945 477451.4432
 -3858.157261 2282.177993 477442.9574
 -4932.53536 2012.747094 477434.2785
 -5735.105188 1399.532673 477427.5036
 5772.868744 543.121422 477428.7908
 5098.414958 684.6412604 477436.2876
 3983.327 779.6866222 477446.7473
 2530.069399 838.5265076 477456.5602
 867.0108075 867.0079218 477462.4256
 -867.0099764 867.0077539 477462.4256
 -2530.068549 838.5266246 477456.5602
 -3983.326177 779.6864718 477446.7473
 -5098.414115 684.6412749 477436.2876
 -5772.86791 543.1213431 477428.7908
 5772.868759 -543.1263521 477428.7908
 5098.415003 -684.6462213 477436.2876
 3983.326983 -779.6915891 477446.7473
 2530.069458 -838.5315095 477456.5602
 867.0107671 -867.0129386 477462.4256
 -867.0099001 -867.0128028 477462.4256
 -2530.068618 -838.5316567 477456.5602
 -3983.326111 -779.6915411 477446.7473
 -5098.414161 -684.6463183 477436.2876
 -5772.867906 -543.1263919 477428.7908
 5735.106083 -1399.537644 477427.5036
 4932.536217 -2012.752144 477434.2784
 3858.158171 -2282.182925 477442.9574
 2448.544996 -2448.547094 477451.4431
 838.5295334 -2530.07145 477456.5602
 -838.5286634 -2530.071573 477456.5602
 -2448.544098 -2448.547025 477451.4431
 -3858.157319 -2282.183016 477442.9574
 -4932.535337 -2012.752163 477434.2784
 -5735.105223 -1399.5377 477427.5036
 0 0 0
 4445.311352 -3440.172591 477430.912
 3615.257549 -3615.259563 477436.6252
 2282.180932 -3858.160175 477442.9574
 779.6895075 -3983.329098 477446.7473
 -779.6886048 -3983.329022 477446.7473
 -2282.180059 -3858.160256 477442.9574
 -3615.256643 -3615.259561 477436.6252
 -4445.310479 -3440.172635 477430.912
 0 0 -0
 0 0 0
 4250.702085 -4250.704052 477426.1559
 3440.170596 -4445.313347 477430.912
 2012.750139 -4932.538259 477434.2784
 684.6442281 -5098.417032 477436.2876
 -684.6433279 -5098.417088 477436.2876
 -2012.749226 -4932.53824 477434.2784
 -3440.169706 -4445.313384 477430.912
 -4250.70119 -4250.704073 477426.1559
 0 0 -0
 0 0 0
 0 0 0
 0 0 0
 1399.535662 -5735.108127 477427.5035
 543.1243455 -5772.870829 477428.7908
 -543.1234337 -5772.870815 477428.7908
 -1399.534758 -5735.108143 477427.5035
 0 0 -0
 0 0 -0
 0 0 -0
 0 0 0
 0 0 0
 0 0 0
 923.3671759 3788.765146 477448.0746
 358.28896 3812.915549 477448.6408
 -358.2884271 3812.915572 477448.6408
 -923.3666471 3788.765111 477448.0746
 0 0 -0
 0 0 -0
 0 0 -0
 0 0 0
 2808.477183 2808.474381 477447.4801
 2271.556587 2935.066263 477449.575
 1328.014233 3255.916685 477451.0516
 451.5460085 3364.612284 477451.9314
 -451.5454709 3364.612182 477451.9314
 -1328.013681 3255.916743 477451.0516
 -2271.556041 2935.066183 477449.5751
 -2808.476627 2808.474348 477447.4801
 0 0 -0
 0 0 0
 2935.069075 2271.553779 477449.575
 2385.527275 2385.524401 477452.0812
 1504.907556 2544.560321 477454.8479
 513.9486935 2626.399345 477456.4998
 -513.9481316 2626.399502 477456.4998
 -1504.90701 2544.560151 477454.8479
 -2385.526703 2385.524468 477452.0812
 -2935.068518 2271.553687 477449.575
 0 0 -0
 3788.768035 923.3643899 477448.0746
 3255.919589 1328.011381 477451.0516
 2544.563145 1504.904759 477454.8479
 1613.824092 1613.821156 477458.5453
 552.480937 1667.119466 477460.7699
 -552.4803669 1667.119237 477460.7699
 -1613.823502 1613.82133 477458.5453
 -2544.56258 1504.90457 477454.8479
 -3255.919 1328.011418 477451.0516
 -3788.767446 923.3643127 477448.0746
 3812.918469 358.2861389 477448.6408
 3364.61516 451.5432048 477451.9314
 2626.402304 513.9457948 477456.4998
 1667.122286 552.4781338 477460.7699
 571.1072332 571.1042505 477463.3169
 -571.1066294 571.1044873 477463.3169
 -1667.121703 552.477892 477460.7699
 -2626.401694 513.9459217 477456.4998
 -3364.61457 451.5430583 477451.9314
 -3812.917868 358.286114 477448.6408
 3812.918504 -358.291255 477448.6408
 3364.61515 -451.54832 477451.9314
 2626.402368 -513.9509547 477456.4998
 1667.122249 -552.4833001 477460.7699
 571.1073099 -571.1094428 477463.3169
 -571.1066988 -571.1096858 477463.3169
 -1667.121615 -552.4831203 477460.7699
 -2626.401768 -513.9511394 477456.4998
 -3364.614528 -451.548282 477451.9314
 -3812.917895 -358.291333 477448.6408
 3788.768092 -923.3694788 477448.0746
 3255.919673 -1328.016537 477451.0516
 2544.563168 -1504.909888 477454.8479
 1613.824188 -1613.826339 477458.5452
 552.4809113 -1667.124651 477460.7699
 -552.480265 -1667.124459 477460.7699
 -1613.823571 -1613.826527 477458.5453
 -2544.562517 -1504.909809 477454.8479
 -3255.919055 -1328.016638 477451.0516
 -3788.767466 -923.3695138 477448.0746
 0 0 0
 2935.069185 -2271.55892 477449.575
 2385.527396 -2385.529582 477452.0812
 1504.9076 -2544.565478 477454.8479
 513.9488033 -2626.404546 477456.4997
 -513.9481566 -2626.404703 477456.4997
 -1504.90693 -2544.565377 477454.8479
 -2385.526764 -2385.529684 477452.0812
 -2935.068535 -2271.558927 477449.575
 0 0 -0
 0 0 0
 2808.477361 -2808.479538 477447.48
 2271.556712 -2935.071397 477449.575
 1328.014349 -3255.921887 477451.0516
 451.5460538 -3364.617477 477451.9314
 -451.5453839 -3364.61739 477451.9314
 -1328.013697 -3255.921971 477451.0516
 -2271.556046 -2935.071391 477449.575
 -2808.476711 -2808.479573 477447.48
 0 0 -0
 0 0 0
 0 0 0
 0 0 0
 923.3672863 -3788.770357 477448.0746
 358.2890564 -3812.920758 477448.6408
 -358.2883868 -3812.920791 477448.6408
 -923.3666161 -3788.770348 477448.0746
 0 0 -0
 0 0 -0
 0 0 -0
 0 0 0
 0 0 0
 0 0 0
 524.2842316 2152.935554 477458.8582
 203.4160099 2166.349151 477459.0421
 -203.4157171 2166.349109 477459.0421
 -524.283935 2152.935563 477458.8582
 0 0 -0
 0 0 -0
 0 0 -0
 0 0 0
 1596.034113 1596.03134 477458.6649
 1290.352582 1667.191399 477459.3457
 753.9939819 1849.085938 477459.8241
 256.2981791 1910.482047 477460.109
 -256.2978715 1910.482159 477460.109
 -753.9936868 1849.085822 477459.8241
 -1290.352263 1667.191415 477459.3457
 -1596.033801 1596.03128 477458.6649
 0 0 -0
 0 0 0
 1667.194225 1290.349758 477459.3457