# OOMMF OVF 2.0
#
# Segment count: 1
#
# Begin: Segment
# Begin: Header
#
# Title: Oxs_MinDriver::Magnetization
# Desc: Oxs vector field output
# Desc:  MIF source file: F:/Bogdan/UNIC/2022/Master_degree/Samples/Cylinder11_7.mif
# Desc:  Iteration: 2418, State id: 11226
# Desc:  Stage: 4, Stage iteration: 69
# Desc:  Stage simulation time: 0 s
# Desc:  Total simulation time: -2 s
# meshunit: m
# meshtype: rectangular
# xbase: -1.05e-08
# ybase: -1.05e-08
# zbase: -6.4999999999999995e-09
# xnodes: 22
# ynodes: 22
# znodes: 14
# xstepsize: 1.0000000000000001e-09
# ystepsize: 1.0000000000000001e-09
# zstepsize: 1.0000000000000001e-09
# xmin: -1.0999999999999999e-08
# ymin: -1.0999999999999999e-08
# zmin: -6.9999999999999998e-09
# xmax: 1.1000000000000003e-08
# ymax: 1.1000000000000003e-08
# zmax: 7.0000000000000015e-09
# valuedim: 3
# valuelabels: Magnetization_x Magnetization_y Magnetization_z
# valueunits: A/m A/m A/m
#
# End: Header
#
# Begin: Data Text
 0 0 0
 0 0 0
 0 0 0
 0 0 0
 0 0 0
 0 0 0
 0 0 0
 0 0 0
 4552.870652 23032.98441 476886.3851
 3021.108164 23111.21663 476894.7639
 1042.055606 23161.92034 476900.7348
 -1042.055322 23161.92031 476900.7348
 -3021.107883 23111.21654 476894.7639
 -4552.870372 23032.98429 476886.3851
 0 0 -0
 0 0 -0
 0 0 -0
 0 0 -0
 0 0 -0
 0 0 -0
 0 0 -0
 0 0 -0
 0 0 0
 0 0 0
 0 0 0
 0 0 0
 0 0 0
 11493.8618 20628.41238 476879.6819
 10045.84746 20846.13954 476902.9154
 8009.031411 21149.37472 476928.119
 5490.882245 21711.9531 476938.4788
 3307.623402 21884.24491 476950.7425
 1109.199206 21945.80334 476958.0932
 -1109.19893 21945.80331 476958.0932
 -3307.623125 21884.24482 476950.7425
 -5490.881976 21711.95295 476938.4789
 -8009.031149 21149.37449 476928.119
 -10045.84721 20846.13926 476902.9154
 -11493.86155 20628.41206 476879.682
 0 0 -0
 0 0 -0
 0 0 -0
 0 0 -0
 0 0 -0
 0 0 0
 0 0 0
 0 0 0
 0 0 0
 13917.60136 18661.00553 476896.1507
 12232.76674 19249.80982 476918.9402
 10318.22292 19537.16008 476952.5185
 8155.477158 19766.44483 476984.9548
 5803.243711 20002.27149 477009.5416
 3480.759972 20118.88364 477027.2383
 1161.1711 20165.43754 477036.5585
 -1161.170834 20165.43751 477036.5585
 -3480.759711 20118.88353 477027.2384
 -5803.24345 20002.27132 477009.5416
 -8155.476908 19766.44459 476984.9549
 -10318.22267 19537.15978 476952.5186
 -12232.7665 19249.80948 476918.9402
 -13917.60114 18661.00514 476896.1507
 0 0 -0
 0 0 -0
 0 0 -0
 0 0 -0
 0 0 0
 0 0 0
 0 0 0
 16355.07292 16355.08078 476903.4433
 14669.04816 17055.35948 476933.7533
 12699.44291 17456.42848 476975.7526
 10566.97896 17689.08839 477019.1887
 8303.09382 17849.84815 477057.9764
 5947.82855 17974.41126 477088.4773
 3572.508527 18045.34627 477109.4989
 1191.428806 18075.71079 477120.2369
 -1191.42856 18075.71075 477120.2369
 -3572.508279 18045.34616 477109.4989
 -5947.828312 17974.41108 477088.4773
 -8303.09358 17849.84789 477057.9764
 -10566.97874 17689.08807 477019.1887
 -12699.44268 17456.4281 476975.7526
 -14669.04795 17055.35906 476933.7533
 -16355.07272 16355.08032 476903.4433
 0 0 -0
 0 0 -0
 0 0 -0
 0 0 0
 0 0 0
 18660.9977 13917.60925 476896.1508
 17055.35162 14669.05605 476933.7533
 15123.95585 15123.96375 476984.6989
 12995.90617 15399.76457 477038.599
 10746.23168 15567.09932 477089.1481
 8413.556737 15674.9183 477132.4557
 6028.413041 15747.175 477166.1723
 3621.928153 15788.76834 477189.132
 1207.92689 15806.95595 477200.7464
 -1207.926665 15806.95591 477200.7464
 -3621.927934 15788.76822 477189.132
 -6028.412819 15747.1748 477166.1723
 -8413.556528 15674.91803 477132.4557
 -10746.23147 15567.09898 477089.1481
 -12995.90598 15399.76418 477038.5991
 -15123.95566 15123.96331 476984.6989
 -17055.35144 14669.05556 476933.7534
 -18660.99754 13917.60872 476896.1508
 0 0 -0
 0 0 -0
 0 0 0
 20628.40461 11493.86968 476879.6821
 19249.80201 12232.77464 476918.9403
 17456.42061 12699.45083 476975.7527
 15399.75666 12995.91411 477038.5991
 13180.5577 13180.56565 477100.0072
 10863.01592 13293.25468 477155.2741
 8485.877222 13362.21157 477201.5428
 6074.878612 13404.19149 477237.1473
 3648.55349 13427.31081 477261.2143
 1216.621425 13437.22915 477273.3305
 -1216.621232 13437.22911 477273.3305
 -3648.553294 13427.31068 477261.2143
 -6074.878426 13404.19129 477237.1473
 -8485.877033 13362.21129 477201.5428
 -10863.01574 13293.25433 477155.2741
 -13180.55753 13180.56524 477100.0072
 -15399.7565 12995.91365 477038.5991
 -17456.42046 12699.45032 476975.7527
 -19249.80186 12232.7741 476918.9403
 -20628.40448 11493.86911 476879.6821
 0 0 -0
 0 0 0
 20846.13178 10045.85538 476902.9156
 19537.15227 10318.23086 476952.5187
 17689.08053 10566.98692 477019.1888
 15567.09141 10746.23965 477089.1482
 13293.24673 10863.02391 477155.2741
 10934.2825 10934.2905 477213.5309
 8528.92202 10975.8178 477261.6266
 6100.303307 10998.8972 477298.3154
 3662.06789 11010.5359 477322.9815
 1220.86613 11015.19741 477335.3603
 -1220.865969 11015.19736 477335.3603
 -3662.067733 11010.53577 477322.9815
 -6100.303147 10998.89698 477298.3154
 -8528.921869 10975.81751 477261.6266
 -10934.28235 10934.29013 477213.5309
 -13293.24658 10863.02348 477155.2741
 -15567.09127 10746.23917 477089.1482
 -17689.0804 10566.98639 477019.1888
 -19537.15215 10318.23029 476952.5187
 -20846.13166 10045.8548 476902.9156
 0 0 -0
 0 0 0
 21149.36695 8009.039358 476928.1192
 19766.43703 8155.485121 476984.955
 17849.84029 8303.101804 477057.9766
 15674.9104 8413.564741 477132.4558
 13362.20362 8485.885243 477201.5429
 10975.8098 8528.930051 477261.6266
 8552.369849 8552.377886 477310.7846
 6112.760609 8563.908495 477348.0543
 3667.988265 8568.803559 477373.0122
 1222.596644 8570.416552 477385.5093
 -1222.596522 8570.416511 477385.5093
 -3667.988143 8568.803421 477373.0122
 -6112.760491 8563.908278 477348.0543
 -8552.369732 8552.377583 477310.7846
 -10975.80969 8528.929677 477261.6266
 -13362.20351 8485.8848 477201.5429
 -15674.91029 8413.564244 477132.4558
 -17849.8402 8303.10126 477057.9766
 -19766.43694 8155.484543 476984.955
 -21149.36687 8009.038762 476928.1192
 0 0 -0
 23032.9767 4552.878571 476886.3854
 21711.94535 5490.890198 476938.4791
 20002.26369 5803.251689 477009.5418
 17974.40342 5947.836555 477088.4775
 15747.1671 6028.421067 477166.1725
 13404.18354 6074.886657 477237.1475
 10998.8892 6100.311364 477298.3155
 8563.900464 6112.768671 477348.0543
 6117.813978 6117.822041 477385.605
 3669.828161 6119.234955 477410.6813
 1223.019412 6119.366211 477423.2178
 -1223.019331 6119.366159 477423.2178
 -3669.828082 6119.234824 477410.6813
 -6117.813899 6117.821811 477385.605
 -8563.900388 6112.768366 477348.0543
 -10998.88913 6100.310979 477298.3155
 -13404.18347 6074.886206 477237.1475
 -15747.16703 6028.420558 477166.1725
 -17974.40336 5947.835998 477088.4775
 -20002.26364 5803.251098 477009.5419
 -21711.94531 5490.889581 476938.4791
 -23032.97667 4552.877936 476886.3854
 23111.20893 3021.116099 476894.7643
 21884.23718 3307.631359 476950.7428
 20118.87586 3480.767961 477027.2386
 18045.33844 3572.51654 477109.4992
 15788.76045 3621.936193 477189.1322
 13427.30287 3648.561549 477261.2145
 11010.52791 3662.075962 477322.9816
 8568.795536 3667.996347 477373.0123
 6119.226906 3669.836237 477410.6813
 3669.88424 3669.892312 477435.7916
 1222.910593 3669.579843 477448.3323
 -1222.910557 3669.579803 477448.3323
 -3669.884204 3669.892167 477435.7916
 -6119.226872 3669.836014 477410.6813
 -8568.795502 3667.996031 477373.0123
 -11010.52788 3662.075574 477322.9816
 -13427.30284 3648.561091 477261.2145
 -15788.76042 3621.935675 477189.1322
 -18045.33841 3572.515976 477109.4992
 -20118.87584 3480.767358 477027.2386
 -21884.23716 3307.630734 476950.7428
 -23111.20892 3021.115458 476894.7643
 23161.91266 1042.063546 476900.7352
 21945.79563 1109.207169 476958.0936
 20165.42978 1161.179087 477036.5588
 18075.70297 1191.436825 477120.2372
 15806.94808 1207.934931 477200.7466
 13437.22123 1216.629488 477273.3307
 11015.18944 1220.87421 477335.3605
 8570.408549 1222.604727 477385.5094
 6119.358176 1223.0275 477423.2179
 3669.571792 1222.918667 477448.3323
 1222.742805 1222.750867 477460.8686
 -1222.742814 1222.750813 477460.8686
 -3669.571802 1222.918533 477448.3323
 -6119.358185 1223.027266 477423.2179
 -8570.40856 1222.604415 477385.5094
 -11015.18945 1220.873817 477335.3605
 -13437.22124 1216.629025 477273.3307
 -15806.94809 1207.934413 477200.7466
 -18075.70299 1191.436253 477120.2372
 -20165.42979 1161.178483 477036.5588
 -21945.79564 1109.206537 476958.0936
 -23161.91268 1042.062902 476900.7352
 23161.91265 -1042.047384 476900.7352
 21945.79561 -1109.190975 476958.0936
 20165.42977 -1161.16285 477036.5588
 18075.70296 -1191.420551 477120.2372
 15806.94807 -1207.918629 477200.7467
 13437.22121 -1216.613173 477273.3307
 11015.18943 -1220.857899 477335.3605
 8570.408532 -1222.588439 477385.5095
 6119.358152 -1223.011252 477423.2179
 3669.571776 -1222.902481 477448.3323
 1222.742776 -1222.734756 477460.8687
 -1222.742832 -1222.734799 477460.8687
 -3669.571831 -1222.902625 477448.3323
 -6119.358207 -1223.011479 477423.2179
 -8570.408587 -1222.588755 477385.5095
 -11015.18948 -1220.858291 477335.3605
 -13437.22126 -1216.613633 477273.3307
 -15806.94812 -1207.919152 477200.7467
 -18075.70301 -1191.421117 477120.2372
 -20165.42982 -1161.163459 477036.5588
 -21945.79566 -1109.191604 476958.0936
 -23161.91269 -1042.048028 476900.7352
 23111.2089 -3021.099959 476894.7644
 21884.23715 -3307.615183 476950.7429
 20118.87582 -3480.751744 477027.2387
 18045.3384 -3572.500284 477109.4993
 15788.7604 -3621.919913 477189.1324
 13427.30282 -3648.545255 477261.2146
 11010.52786 -3662.059674 477322.9817
 8568.795477 -3667.98008 477373.0124
 6119.226848 -3669.820014 477410.6815
 3669.884171 -3669.876146 477435.7918
 1222.91053 -3669.563758 477448.3324
 -1222.910631 -3669.563807 477448.3324
 -3669.884272 -3669.876283 477435.7918
 -6119.226949 -3669.820243 477410.6815
 -8568.795574 -3667.980392 477373.0124
 -11010.52796 -3662.060063 477322.9817
 -13427.30292 -3648.545715 477261.2146
 -15788.76049 -3621.920427 477189.1323
 -18045.33849 -3572.500851 477109.4993
 -20118.8759 -3480.752343 477027.2387
 -21884.23723 -3307.61581 476950.7429
 -23111.20897 -3021.100599 476894.7644
 23032.97665 -4552.862466 476886.3856
 21711.9453 -5490.874053 476938.4793
 20002.26363 -5803.235503 477009.542
 17974.40334 -5947.820339 477088.4777
 15747.16703 -6028.404824 477166.1727
 13404.18346 -6074.870408 477237.1477
 10998.88912 -6100.295119 477298.3157
 8563.900369 -6112.752451 477348.0545
 6117.813875 -6117.80586 477385.6053
 3669.828058 -6119.218837 477410.6815
 1223.019297 -6119.350165 477423.218
 -1223.019443 -6119.35021 477423.218
 -3669.828204 -6119.218975 477410.6815
 -6117.814017 -6117.806084 477385.6052
 -8563.900512 -6112.752758 477348.0545
 -10998.88925 -6100.295504 477298.3157
 -13404.18359 -6074.870857 477237.1477
 -15747.16715 -6028.405337 477166.1727
 -17974.40347 -5947.820893 477088.4777
 -20002.26375 -5803.236097 477009.542
 -21711.94541 -5490.874669 476938.4793
 -23032.97674 -4552.863101 476886.3855
 0 0 0
 21149.36687 -8009.023239 476928.1195
 19766.43693 -8155.468983 476984.9553
 17849.8402 -8303.085637 477057.9768
 15674.91029 -8413.548563 477132.4561
 13362.20351 -8485.869052 477201.5432
 10975.80968 -8528.913873 477261.6269
 8552.369719 -8552.361729 477310.7849
 6112.760473 -8563.892383 477348.0546
 3667.988118 -8568.787503 477373.0125
 1222.596494 -8570.400574 477385.5096
 -1222.596681 -8570.400619 477385.5096
 -3667.988304 -8568.787637 477373.0125
 -6112.760658 -8563.892602 477348.0546
 -8552.369897 -8552.362031 477310.7849
 -10975.80986 -8528.914246 477261.6269
 -13362.20367 -8485.869497 477201.5432
 -15674.91046 -8413.549058 477132.4561
 -17849.84035 -8303.086184 477057.9768
 -19766.43708 -8155.469558 476984.9553
 -21149.36701 -8009.023837 476928.1194
 0 0 -0
 0 0 0
 20846.13165 -10045.83932 476902.9159
 19537.15215 -10318.21478 476952.519
 17689.0804 -10566.97083 477019.1892
 15567.09128 -10746.22354 477089.1485
 13293.24658 -10863.0078 477155.2745
 10934.28235 -10934.2744 477213.5313
 8528.921858 -10975.80173 477261.627
 6100.303134 -10998.88117 477298.3157
 3662.06771 -11010.51993 477322.9819
 1220.865941 -11015.18151 477335.3607
 -1220.866166 -11015.18155 477335.3607
 -3662.067934 -11010.52006 477322.9819
 -6100.303354 -10998.88138 477298.3157
 -8528.922078 -10975.80202 477261.6269
 -10934.28256 -10934.27477 477213.5312
 -13293.24679 -10863.00823 477155.2745
 -15567.09147 -10746.22403 477089.1485
 -17689.08059 -10566.97135 477019.1892
 -19537.15232 -10318.21534 476952.519
 -20846.13182 -10045.8399 476902.9159
 0 0 -0
 0 0 0
 20628.40446 -11493.85369 476879.6825
 19249.80186 -12232.75865 476918.9407
 17456.42047 -12699.43482 476975.7531
 15399.75651 -12995.8981 477038.5995
 13180.55753 -13180.54963 477100.0077
 10863.01574 -13293.23868 477155.2745
 8485.87703 -13362.1956 477201.5433
 6074.878411 -13404.17556 477237.1478
 3648.553277 -13427.29494 477261.2148
 1216.621201 -13437.21334 477273.3309
 -1216.62146 -13437.21339 477273.3309
 -3648.553535 -13427.29506 477261.2147
 -6074.878665 -13404.17577 477237.1478
 -8485.877278 -13362.19588 477201.5433
 -10863.01599 -13293.23903 477155.2745
 -13180.55776 -13180.55005 477100.0076
 -15399.75674 -12995.89856 477038.5995
 -17456.42068 -12699.43533 476975.7531
 -19249.80207 -12232.75919 476918.9407
 -20628.40465 -11493.85426 476879.6824
 0 0 -0
 0 0 0
 0 0 0
 18660.99754 -13917.59331 476896.1512
 17055.35145 -14669.04012 476933.7538
 15123.95568 -15123.94782 476984.6994
 12995.90598 -15399.74866 477038.5996
 10746.23147 -15567.08342 477089.1486
 8413.556521 -15674.90244 477132.4562
 6028.412812 -15747.15918 477166.1729
 3621.927912 -15788.75257 477189.1326
 1207.926641 -15806.94025 477200.7469
 -1207.92693 -15806.94029 477200.7469
 -3621.928196 -15788.75269 477189.1325
 -6028.413096 -15747.15938 477166.1728
 -8413.556798 -15674.9027 477132.4562
 -10746.23174 -15567.08376 477089.1486
 -12995.90625 -15399.74905 477038.5995
 -15123.95592 -15123.94827 476984.6994
 -17055.3517 -14669.0406 476933.7538
 -18660.99776 -13917.59383 476896.1512
 0 0 -0
 0 0 -0
 0 0 0
 0 0 0
 0 0 0
 16355.07274 -16355.06492 476903.4438
 14669.04796 -17055.34365 476933.7539
 12699.44269 -17456.41266 476975.7532
 10566.97873 -17689.0726 477019.1893
 8303.09358 -17849.83239 477057.977
 5947.828301 -17974.39556 477088.4779
 3572.508265 -18045.33062 477109.4995
 1191.428529 -18075.6952 477120.2375
 -1191.428839 -18075.69524 477120.2375
 -3572.508577 -18045.33073 477109.4995
 -5947.828602 -17974.39574 477088.4779
 -8303.09388 -17849.83265 477057.977
 -10566.97903 -17689.07291 477019.1893
 -12699.44297 -17456.41303 476975.7531
 -14669.04823 -17055.34406 476933.7538
 -16355.07299 -16355.06538 476903.4438
 0 0 -0
 0 0 -0
 0 0 -0
 0 0 0
 0 0 0
 0 0 0
 0 0 0
 13917.60114 -18660.98977 476896.1513
 12232.7665 -19249.7941 476918.9409
 10318.22267 -19537.14439 476952.5192
 8155.476902 -19766.42919 476984.9555
 5803.243444 -20002.25589 477009.5423
 3480.759691 -20118.8681 477027.239
 1161.170811 -20165.42206 477036.5591
 -1161.17114 -20165.4221 477036.5591
 -3480.760015 -20118.8682 477027.239
 -5803.243769 -20002.25607 477009.5423
 -8155.477215 -19766.42942 476984.9555
 -10318.22298 -19537.14469 476952.5192
 -12232.7668 -19249.79445 476918.9408
 -13917.60143 -18660.99016 476896.1513
 0 0 -0
 0 0 -0
 0 0 -0
 0 0 -0
 0 0 0
 0 0 0
 0 0 0
 0 0 0
 0 0 0
 11493.86153 -20628.39674 476879.6826
 10045.8472 -20846.12394 476902.9161
 8009.031145 -21149.35916 476928.1197
 5490.881966 -21711.93761 476938.4796
 3307.623108 -21884.22947 476950.7432
 1109.198899 -21945.78796 476958.0939
 -1109.199239 -21945.78799 476958.0939
 -3307.623448 -21884.22957 476950.7432
 -5490.882297 -21711.93776 476938.4795
 -8009.03147 -21149.35939 476928.1196
 -10045.84751 -20846.12422 476902.9161
 -11493.86184 -20628.39706 476879.6826
 0 0 -0
 0 0 -0
 0 0 -0
 0 0 -0
 0 0 -0
 0 0 0
 0 0 0
 0 0 0
 0 0 0
 0 0 0
 0 0 0
 0 0 0
 0 0 0
 4552.870349 -23032.969 476886.3858
 3021.107856 -23111.20126 476894.7647
 1042.055293 -23161.90503 476900.7356
 -1042.05564 -23161.90506 476900.7356
 -3021.108201 -23111.20134 476894.7647
 -4552.870692 -23032.96912 476886.3858
 0 0 -0
 0 0 -0
 0 0 -0
 0 0 -0
 0 0 -0
 0 0 -0
 0 0 -0
 0 0 -0
 0 0 0
 0 0 0
 0 0 0
 0 0 0
 0 0 0
 0 0 0
 0 0 0
 0 0 0
 4086.497832 21088.60696 476980.5473
 2753.963091 21170.41885 476986.4782
 956.3225238 21223.60032 476991.1063
 -956.3222411 21223.60029 476991.1063
 -2753.962807 21170.41877 476986.4782
 -4086.497553 21088.60684 476980.5473
 0 0 -0
 0 0 -0
 0 0 -0
 0 0 -0
 0 0 -0
 0 0 -0
 0 0 -0
 0 0 -0
 0 0 0
 0 0 0
 0 0 0
 0 0 0
 0 0 0
 10522.00985 18860.10969 476975.3189
 9270.374058 19088.12404 476992.2169
 7386.610741 19431.67868 477011.2359
 5036.924551 20029.31701 477017.1141
 3046.860372 20237.00003 477025.2108
 1024.880567 20310.94922 477030.6974
 -1024.880288 20310.94919 477030.6974
 -3046.860101 20236.99994 477025.2108
 -5036.924275 20029.31686 477017.1141
 -7386.610482 19431.67845 477011.2359
 -9270.373801 19088.12376 476992.2169
 -10522.00961 18860.10937 476975.3189
 0 0 -0
 0 0 -0
 0 0 -0
 0 0 -0
 0 0 -0
 0 0 0
 0 0 0
 0 0 0
 0 0 0
 12717.5927 17113.77289 476987.6863
 11259.26714 17731.20107 477001.7869
 9562.245043 18062.81304 477026.3824
 7576.075879 18330.12589 477051.8639
 5391.231288 18600.31178 477071.0999
 3237.701184 18743.14603 477084.9852
 1081.226545 18801.24813 477092.4599
 -1081.226282 18801.24809 477092.4599
 -3237.700914 18743.14592 477084.9852
 -5391.231037 18600.31161 477071.0999
 -7576.075619 18330.12565 477051.8639
 -9562.244805 18062.81275 477026.3825
 -11259.26689 17731.20072 477001.7869
 -12717.59248 17113.77251 476987.6863
 0 0 -0
 0 0 -0
 0 0 -0
 0 0 -0
 0 0 0
 0 0 0
 0 0 0
 14980.89805 14980.90589 476993.7279
 13511.72789 15728.91849 477013.5277
 11773.99818 16192.54114 477044.0712
 9844.136235 16469.48081 477078.3169
 7755.2345 16660.90592 477110.1989
 5561.926481 16808.55252 477135.6294
 3343.445741 16895.69437 477153.2544
 1115.577285 16933.93294 477162.3085
 -1115.577034 16933.9329 477162.3085
 -3343.445503 16895.69426 477153.2544
 -5561.926228 16808.55234 477135.6294
 -7755.234275 16660.90566 477110.1989
 -9844.135996 16469.48049 477078.3169
 -11773.99797 16192.54077 477044.0712
 -13511.72768 15728.91808 477013.5277
 -14980.89785 14980.90543 476993.7279
 0 0 -0
 0 0 -0
 0 0 -0
 0 0 0
 0 0 0
 17113.76509 12717.60056 476987.6864
 15728.91065 13511.73576 477013.5278
 14032.85833 14032.8662 477051.3902
 12116.60411 14359.50499 477094.1876
 10053.24928 14560.94944 477136.0207
 7887.731541 14691.5398 477172.7294
 5658.538137 14779.52892 477201.6531
 3402.100958 14831.47408 477221.4626
 1135.001223 14854.77364 477231.5149
 -1135.001002 14854.7736 477231.5149
 -3402.100728 14831.47396 477221.4626
 -5658.537929 14779.52873 477201.6532
 -7887.731315 14691.53953 477172.7294
 -10053.24908 14560.94911 477136.0207
 -12116.60391 14359.5046 477094.1876
 -14032.85814 14032.86576 477051.3902
 -15728.91048 13511.73528 477013.5278
 -17113.76493 12717.60004 476987.6864
 0 0 -0
 0 0 -0
 0 0 0
 18860.10194 10522.01771 476975.3191
 17731.19327 11259.27501 477001.787
 16192.5333 11774.00608 477044.0713
 14359.4971 12116.61203 477094.1876
 12335.78567 12335.7936 477145.1853
 10192.74468 12472.3424 477192.2253
 7975.638255 12557.48304 477232.1973
 5715.560705 12610.3905 477263.2206
 3434.829243 12640.45242 477284.2887
 1145.677069 12653.76884 477294.9202
 -1145.676871 12653.76879 477294.9202
 -3434.829057 12640.4523 477284.2887
 -5715.560505 12610.39029 477263.2206
 -7975.638077 12557.48276 477232.1973
 -10192.74449 12472.34205 477192.2254
 -12335.7855 12335.79318 477145.1853
 -14359.49694 12116.61156 477094.1876
 -16192.53314 11774.00557 477044.0713
 -17731.19313 11259.27447 477001.787
 -18860.1018 10522.01714 476975.3191
 0 0 -0
 0 0 0
 19088.1163 9270.381949 476992.2171
 18062.80526 9562.252951 477026.3826
 16469.47297 9844.144165 477078.317
 14560.94156 10053.25722 477136.0207
 12472.33447 10192.75265 477192.2254
 10280.2216 10280.22957 477242.6062
 8029.703838 10333.01136 477284.6363
 5748.248903 10363.70238 477316.8996
 3452.503328 10380.11645 477338.6688
 1151.276437 10387.09521 477349.6141
 -1151.276278 10387.09518 477349.6141
 -3452.503162 10380.11631 477338.6688
 -5748.248752 10363.70217 477316.8996
 -8029.70368 10333.01107 477284.6363
 -10280.22145 10280.2292 477242.6063
 -12472.33433 10192.75222 477192.2254
 -14560.94142 10053.25674 477136.0208
 -16469.47285 9844.143637 477078.317
 -18062.80514 9562.252391 477026.3826
 -19088.11619 9270.38137 476992.2171
 0 0 -0
 0 0 0
 19431.67094 7386.618663 477011.2361
 18330.11811 7576.083815 477051.8641
 16660.89809 7755.242459 477110.199
 14691.53192 7887.73952 477172.7295
 12557.47511 7975.64625 477232.1973
 10333.00338 8029.711848 477284.6363
 8060.857653 8060.865662 477327.8918
 5765.754947 8077.628137 477360.8481
 3461.299776 8085.795492 477382.9811
 1153.942237 8088.990154 477394.0803
 -1153.942112 8088.990098 477394.0803
 -3461.299657 8085.79537 477382.9811
 -5765.754823 8077.627909 477360.8481
 -8060.857538 8060.865368 477327.8918
 -10333.00327 8029.711471 477284.6363
 -12557.475 7975.645812 477232.1974
 -14691.53182 7887.739022 477172.7295
 -16660.89799 7755.241918 477110.199
 -18330.11802 7576.083241 477051.8641
 -19431.67086 7386.618067 477011.2361
 0 0 -0
 21088.59927 4086.505726 476980.5476
 20029.30929 5036.932474 477017.1143
 18600.304 5391.239244 477071.1001
 16808.5447 5561.934457 477135.6296
 14779.52105 5658.54614 477201.6533
 12610.38257 5715.568726 477263.2207
 10363.69441 5748.256934 477316.8996
 8077.620123 5765.762992 477360.8481
 5774.235715 5774.243747 477394.1638
 3465.08888 5777.79865 477416.4655
 1154.998837 5778.963796 477427.6289
 -1154.998756 5778.963766 477427.6289
 -3465.088796 5777.798499 477416.4655
 -5774.235637 5774.243535 477394.1638
 -8077.620045 5765.762677 477360.8481
 -10363.69433 5748.256555 477316.8996
 -12610.3825 5715.568275 477263.2207
 -14779.52098 5658.545632 477201.6533
 -16808.54464 5561.933904 477135.6296
 -18600.30395 5391.238651 477071.1001
 -20029.30923 5036.931862 477017.1144
 -21088.59924 4086.505092 476980.5476
 21170.41118 2753.970996 476986.4785
 20236.99232 3046.868308 477025.2111
 18743.13827 3237.70914 477084.9854
 16895.68656 3343.453734 477153.2546
 14831.46622 3402.108971 477221.4628
 12640.4445 3434.837278 477284.2888
 10380.10849 3452.511381 477338.6689
 8085.787496 3461.307827 477382.9811
 5777.790616 3465.096943 477416.4655
 3466.362866 3466.370907 477438.8337
 1155.285367 3466.645693 477450.0173
 -1155.285329 3466.645628 477450.0173
 -3466.362831 3466.370786 477438.8337
 -5777.790578 3465.096702 477416.4655
 -8085.787463 3461.307524 477382.9811
 -10380.10845 3452.51099 477338.6689
 -12640.44447 3434.83682 477284.2888
 -14831.46619 3402.108459 477221.4628
 -16895.68654 3343.453167 477153.2546
 -18743.13824 3237.708546 477084.9854
 -20236.99231 3046.86768 477025.2111
 -21170.41117 2753.970359 476986.4785
 21223.59266 956.33044 476991.1067
 20310.94153 1024.888498 477030.6977
 18801.24039 1081.234513 477092.4602
 16933.92515 1115.585272 477162.3088
 14854.7658 1135.009242 477231.5151
 12653.76094 1145.68511 477294.9204
 10387.08727 1151.284487 477349.6143
 8088.98217 1153.950307 477394.0805
 5778.955788 1155.006893 477427.629
 3466.637659 1155.293429 477450.0173
 1155.308546 1155.316583 477461.2045
 -1155.308555 1155.316553 477461.2045
 -3466.637665 1155.293274 477450.0173
 -5778.955798 1155.006675 477427.629
 -8088.982177 1153.949987 477394.0805
 -10387.08728 1151.284098 477349.6143
 -12653.76095 1145.684653 477294.9204
 -14854.76581 1135.008717 477231.5151
 -16933.92515 1115.584712 477162.3088
 -18801.24041 1081.233903 477092.4602
 -20310.94154 1024.887873 477030.6977
 -21223.59268 956.3297971 476991.1067
 21223.59265 -956.3143303 476991.1067
 20310.94152 -1024.872356 477030.6977
 18801.24038 -1081.218329 477092.4602
 16933.92514 -1115.569047 477162.3088
 14854.76578 -1134.99299 477231.5151
 12653.76093 -1145.668842 477294.9204
 10387.08726 -1151.268222 477349.6143
 8088.982145 -1153.934061 477394.0805
 5778.955779 -1154.990691 477427.629
 3466.637623 -1155.277281 477450.0173
 1155.308539 -1155.300517 477461.2045
 -1155.308593 -1155.300576 477461.2045
 -3466.637677 -1155.27741 477450.0173
 -5778.955832 -1154.990927 477427.629
 -8088.982198 -1153.934371 477394.0805
 -10387.08731 -1151.268613 477349.6143
 -12653.76098 -1145.669305 477294.9204
 -14854.76582 -1134.993502 477231.5151
 -16933.92519 -1115.569622 477162.3088
 -18801.24041 -1081.218926 477092.4602
 -20310.94157 -1024.872988 477030.6977
 -21223.59269 -956.3149703 476991.1067
 21170.41115 -2753.954908 476986.4786
 20236.99229 -3046.852186 477025.2112
 18743.13824 -3237.692972 477084.9855
 16895.68651 -3343.437533 477153.2547
 14831.46618 -3402.092735 477221.4629
 12640.44445 -3434.821034 477284.2889
 10380.10843 -3452.495136 477338.669
 8085.787443 -3461.291609 477382.9813
 5777.790546 -3465.080757 477416.4656
 3466.362814 -3466.354791 477438.8338
 1155.285286 -3466.629642 477450.0174
 -1155.285386 -3466.629681 477450.0174
 -3466.362914 -3466.354935 477438.8338
 -5777.790643 -3465.080981 477416.4656
 -8085.787542 -3461.291921 477382.9813
 -10380.10853 -3452.495526 477338.669
 -12640.44454 -3434.821485 477284.2889
 -14831.46627 -3402.093258 477221.4629
 -16895.6866 -3343.438088 477153.2547
 -18743.13832 -3237.693577 477084.9855
 -20236.99236 -3046.852807 477025.2112
 -21170.41122 -2753.955547 476986.4785
 21088.59922 -4086.489672 476980.5477
 20029.30923 -5036.916379 477017.1145
 18600.30394 -5391.223114 477071.1003
 16808.54464 -5561.918284 477135.6298
 14779.52096 -5658.529954 477201.6535
 12610.3825 -5715.552518 477263.2209
 10363.69432 -5748.24074 477316.8998
 8077.620027 -5765.746811 477360.8483
 5774.235621 -5774.227617 477394.164
 3465.088764 -5777.782567 477416.4657
 1154.998737 -5778.947801 477427.6291
 -1154.99888 -5778.94785 477427.6291
 -3465.088906 -5777.782702 477416.4657
 -5774.235765 -5774.227841 477394.164
 -8077.62016 -5765.74712 477360.8483
 -10363.69446 -5748.241118 477316.8998
 -12610.38262 -5715.552975 477263.2209
 -14779.5211 -5658.530453 477201.6535
 -16808.54476 -5561.918846 477135.6298
 -18600.30405 -5391.223698 477071.1002
 -20029.30934 -5036.916996 477017.1145
 -21088.59931 -4086.490304 476980.5477
 0 0 0
 19431.67085 -7386.602596 477011.2363
 18330.11803 -7576.067722 477051.8643
 16660.89798 -7755.226354 477110.1993
 14691.53182 -7887.72338 477172.7297
 12557.47499 -7975.630117 477232.1976
 10333.00327 -8029.695711 477284.6366
 8060.857524 -8060.849557 477327.8921
 5765.754806 -8077.612063 477360.8484
 3461.299638 -8085.779487 477382.9813
 1153.94208 -8088.974212 477394.0806
 -1153.942265 -8088.974257 477394.0806
 -3461.299822 -8085.779618 477382.9813
 -5765.754984 -8077.612285 477360.8484
 -8060.85771 -8060.849853 477327.8921
 -10333.00343 -8029.69609 477284.6366
 -12557.47517 -7975.630549 477232.1976
 -14691.53197 -7887.723886 477172.7297
 -16660.89815 -7755.226887 477110.1992
 -18330.11817 -7576.068303 477051.8643
 -19431.671 -7386.603188 477011.2363
 0 0 -0
 0 0 0
 19088.11617 -9270.365938 476992.2174
 18062.80513 -9562.236933 477026.3829
 16469.47286 -9844.128116 477078.3174
 14560.94142 -10053.24118 477136.0211
 12472.33434 -10192.73658 477192.2257
 10280.22144 -10280.21352 477242.6066
 8029.703677 -10332.99533 477284.6366
 5748.248735 -10363.6864 477316.8999
 3452.503144 -10380.10052 477338.6691
 1151.27625 -10387.07937 477349.6145
 -1151.276472 -10387.0794 477349.6145
 -3452.503366 -10380.10065 477338.6691
 -5748.248956 -10363.6866 477316.8999
 -8029.703884 -10332.99563 477284.6366
 -10280.22166 -10280.21388 477242.6066
 -12472.33452 -10192.73701 477192.2257
 -14560.94163 -10053.24165 477136.0211
 -16469.47303 -9844.12865 477078.3173
 -18062.80532 -9562.237487 477026.3829
 -19088.11634 -9270.366518 476992.2174
 0 0 -0
 0 0 0
 18860.10178 -10522.00177 476975.3194
 17731.19313 -11259.25906 477001.7874
 16192.53315 -11773.99012 477044.0717
 14359.49696 -12116.59605 477094.188
 12335.7855 -12335.77764 477145.1857
 10192.7445 -12472.32644 477192.2258
 7975.638065 -12557.46712 477232.1977
 5715.560501 -12610.37461 477263.221
 3434.829032 -12640.43659 477284.2891
 1145.676851 -12653.75308 477294.9206
 -1145.677109 -12653.75313 477294.9206
 -3434.829283 -12640.43671 477284.2891
 -5715.560753 -12610.37482 477263.221
 -7975.638317 -12557.46739 477232.1977
 -10192.74473 -12472.3268 477192.2257
 -12335.78575 -12335.77804 477145.1857
 -14359.49717 -12116.59652 477094.188
 -16192.53337 -11773.99063 477044.0717
 -17731.19333 -11259.25961 477001.7874
 -18860.10197 -10522.00233 476975.3194
 0 0 -0
 0 0 0
 0 0 0
 17113.76493 -12717.58467 476987.6868
 15728.9105 -13511.71988 477013.5282
 14032.85815 -14032.85033 477051.3906
 12116.60393 -14359.48912 477094.1881
 10053.24907 -14560.9336 477136.0212
 7887.731323 -14691.52398 477172.7299
 5658.537912 -14779.51315 477201.6536
 3402.100721 -14831.45836 477221.4631
 1135.000966 -14854.758 477231.5153
 -1135.001248 -14854.75803 477231.5153
 -3402.10101 -14831.45849 477221.4631
 -5658.538186 -14779.51334 477201.6536
 -7887.731596 -14691.52426 477172.7298
 -10053.24935 -14560.93393 477136.0211
 -12116.60417 -14359.48952 477094.188
 -14032.85841 -14032.85077 477051.3906
 -15728.91072 -13511.72037 477013.5282
 -17113.76515 -12717.58519 476987.6868
 0 0 -0
 0 0 -0
 0 0 0
 0 0 0
 0 0 0
 14980.89786 -14980.89008 476993.7284
 13511.7277 -15728.9027 477013.5282
 11773.99797 -16192.52538 477044.0717
 9844.136007 -16469.46506 477078.3175
 7755.234266 -16660.89022 477110.1994
 5561.926229 -16808.53686 477135.6299
 3343.445478 -16895.67877 477153.2549
 1115.57702 -16933.9174 477162.3091
 -1115.577331 -16933.91744 477162.3091
 -3343.445776 -16895.67887 477153.2549
 -5561.92654 -16808.53706 477135.6299
 -7755.234558 -16660.89046 477110.1994
 -9844.136293 -16469.46539 477078.3175
 -11773.99826 -16192.52574 477044.0717
 -13511.72796 -15728.90312 477013.5282
 -14980.89812 -14980.89053 476993.7284
 0 0 -0
 0 0 -0
 0 0 -0
 0 0 0
 0 0 0
 0 0 0
 0 0 0