# OOMMF OVF 2.0
#
# Segment count: 1
#
# Begin: Segment
# Begin: Header
#
# Title: Oxs_MinDriver::Magnetization
# Desc: Oxs vector field output
# Desc:  MIF source file: F:/Bogdan/UNIC/2022/Master_degree/Samples/Cylinder11_7.mif
# Desc:  Iteration: 38038, State id: 95062
# Desc:  Stage: 0, Stage iteration: 38038
# Desc:  Stage simulation time: -1 s
# Desc:  Total simulation time: -2 s
# meshunit: m
# meshtype: rectangular
# xbase: -1.55e-08
# ybase: -1.55e-08
# zbase: -5.4999999999999996e-09
# xnodes: 32
# ynodes: 32
# znodes: 12
# xstepsize: 1.0000000000000001e-09
# ystepsize: 1.0000000000000001e-09
# zstepsize: 1.0000000000000001e-09
# xmin: -1.6000000000000001e-08
# ymin: -1.6000000000000001e-08
# zmin: -6e-09
# xmax: 1.6000000000000001e-08
# ymax: 1.6000000000000001e-08
# zmax: 6.0000000000000016e-09
# valuedim: 3
# valuelabels: Magnetization_x Magnetization_y Magnetization_z
# valueunits: A/m A/m A/m
#
# End: Header
#
# Begin: Data Text
 0 0 0
 0 0 0
 0 0 0
 0 0 0
 0 0 0
 0 0 0
 0 0 0
 0 0 0
 0 0 0
 0 0 0
 0 0 0
 0 0 0
 -344649.6074 330185.5046 12886.11714
 -345176.4798 329602.9388 13673.76387
 -345592.3456 329124.4512 14659.38585
 -345795.8355 328862.4515 15703.48476
 -345760.4991 328847.1782 16765.49825
 -345489.1384 329076.7644 17821.60672
 -345014.4054 329518.7973 18822.68682
 -344446.8522 330065.8315 19615.91716
 0 0 -0
 0 0 -0
 0 0 -0
 0 0 -0
 0 0 -0
 0 0 -0
 0 0 -0
 0 0 -0
 0 0 -0
 0 0 -0
 0 0 -0
 0 0 -0
 0 0 0
 0 0 0
 0 0 0
 0 0 0
 0 0 0
 0 0 0
 0 0 0
 0 0 0
 0 0 0
 -342958.6576 332082.2578 8520.826325
 -343692.4998 331302.265 9281.494509
 -344278.6336 330663.5875 10280.35479
 -344536.8414 330349.1066 11649.2057
 -344913.4215 329916.576 12714.39505
 -345247.0242 329525.565 13757.38345
 -345419.4553 329299.0241 14812.96482
 -345388.7459 329281.2658 15885.00868
 -345157.0266 329469.9258 16972.51714
 -344770.2257 329816.4786 18068.0151
 -344347.6142 330196.6372 19151.30932
 -344029.8062 330466.2995 20183.87104
 -343371.5474 331088.4609 21172.68923
 -342588.9165 331847.9385 21946.55577
 0 0 -0
 0 0 -0
 0 0 -0
 0 0 -0
 0 0 -0
 0 0 -0
 0 0 -0
 0 0 -0
 0 0 -0
 0 0 0
 0 0 0
 0 0 0
 0 0 0
 0 0 0
 0 0 0
 0 0 0
 -340966.6465 334194.3412 5268.735795
 -341770.5413 333358.3918 6078.732431
 -342505.174 332577.7653 7355.755342
 -343214.659 331821.5212 8369.421065
 -343787.0597 331201.316 9381.746207
 -344158.8684 330782.2832 10470.22783
 -344485.1777 330407.9036 11508.73006
 -344749.0976 330094.9555 12539.99155
 -344886.1582 329910.392 13584.64023
 -344860.597 329891.3796 14653.24585
 -344673.3315 330036.3644 15753.22196
 -344361.1534 330306.0309 16887.66666
 -343986.3799 330634.979 18048.61233
 -343558.321 331014.4067 19209.73545
 -342924.8705 331602.5531 20350.70707
 -342163.8552 332319.3146 21439.23104
 -341382.8783 333058.6506 22395.02041
 -340537.8531 333871.5098 23144.26126
 0 0 -0
 0 0 -0
 0 0 -0
 0 0 -0
 0 0 -0
 0 0 -0
 0 0 -0
 0 0 0
 0 0 0
 0 0 0
 0 0 0
 0 0 0
 0 0 0
 -339617.6783 335591.5508 3164.632311
 -340370.1594 334816.8806 4205.035304
 -341181.5055 333976.2057 5190.912284
 -341925.3014 333196.4891 6249.740677
 -342596.9556 332485.5403 7250.021818
 -343156.2914 331885.2806 8233.559058
 -343576.2458 331424.2984 9228.708463
 -343900.8122 331058.4331 10218.44115
 -344134.1125 330783.6104 11215.48264
 -344250.2996 330626.616 12232.87833
 -344229.1909 330608.1359 13281.41261
 -344070.8098 330727.4522 14370.16059
 -343794.8779 330963.0863 15504.47362
 -343425.4428 331289.225 16681.90309
 -342955.9537 331712.2324 17890.77816
 -342344.0578 332275.3655 19118.02449
 -341621.5938 332945.502 20343.32077
 -340829.3703 333682.6913 21519.13506
 -339976.7127 334481.7611 22575.5978
 -339201.3712 335218.5244 23298.96902
 0 0 -0
 0 0 -0
 0 0 -0
 0 0 -0
 0 0 -0
 0 0 -0
 0 0 0
 0 0 0
 0 0 0
 0 0 0
 0 0 0
 -338285.4882 336947.6263 1047.316138
 -338980.3489 336243.6763 2093.926054
 -339731.3774 335476.8461 3122.218218
 -340507.0066 334678.7361 4122.295928
 -341237.8083 333919.8231 5116.761643
 -341892.1824 333233.5696 6082.354864
 -342444.787 332646.9842 7030.155773
 -342881.0833 332175.9203 7974.455658
 -343210.1502 331811.8266 8920.528292
 -343433.6857 331553.2839 9879.008291
 -343541.5557 331410.7713 10861.4676
 -343524.1618 331393.8978 11878.80947
 -343381.1265 331502.3559 12940.68324
 -343121.1233 331726.1691 14053.99467
 -342753.0598 332055.0163 15220.9535
 -342274.2907 332490.5279 16438.67591
 -341676.346 333040.2806 17700.77231
 -340975.5315 333686.6573 18994.02457
 -340198.5844 334402.605 20290.20135
 -339380.0114 335155.4201 21538.88453
 -338594.0839 335877.5931 22630.95392
 -337877.6683 336549.4924 23345.05765
 0 0 -0
 0 0 -0
 0 0 -0
 0 0 -0
 0 0 -0
 0 0 0
 0 0 0
 0 0 0
 0 0 0
 -336963.768 338269.4062 -1048.435176
 -337626.0862 337609.978 -0.5424755838
 -338321.7956 336911.2071 1035.580292
 -339055.0286 336168.646 2049.461973
 -339797.8032 335410.3625 3035.281079
 -340505.0511 334682.2513 3996.514336
 -341143.2356 334019.2337 4931.089463
 -341689.0362 333446.0897 5846.285965
 -342129.1357 332977.3626 6752.909044
 -342460.8828 332616.4835 7660.936231
 -342682.2587 332365.9072 8581.641389
 -342788.1474 332230.9432 9526.682413
 -342773.8774 332216.0988 10507.33011
 -342638.9671 332321.1983 11533.89154
 -342387.1108 332541.432 12614.8178
 -342022.4957 332871.2419 13755.72932
 -341546.5324 333307.7657 14958.97071
 -340961.9349 333846.7225 16223.31998
 -340282.6593 334472.5282 17541.69214
 -339532.9444 335159.9251 18896.44316
 -338747.9555 335874.2847 20252.37922
 -337975.3348 336571.7006 21541.46505
 -337246.8234 337229.4469 22644.01786
 -336566.8934 337860.3308 23345.11504
 0 0 -0
 0 0 -0
 0 0 -0
 0 0 -0
 0 0 0
 0 0 0
 0 0 0
 -335607.7993 339601.6112 -3165.753669
 -336259.8678 338964.2806 -2095.012479
 -336927.3709 338305.6953 -1036.613638
 -337626.1096 337609.9546 -0.4856679488
 -338348.6659 336884.3134 1005.456956
 -339070.2394 336153.7348 1977.536624
 -339757.5616 335452.175 2917.001672
 -340381.3028 334810.0872 3826.944464
 -340919.617 334250.5903 4714.760735
 -341358.5233 333788.8189 5590.551883
 -341690.8184 333432.8351 6465.32255
 -341912.058 333187.6077 7350.782757
 -342018.2815 333057.289 8258.8511
 -342006.6379 333044.5452 9201.186978
 -341876.6604 333149.2299 10188.76613
 -341630.2967 333368.3676 11231.34865
 -341270.7155 333697.4243 12336.89907
 -340801.8019 334130.8939 13511.06213
 -340230.5429 334659.9746 14756.368
 -339571.0525 335268.7212 16070.35152
 -338845.6542 335933.4237 17442.15455
 -338084.6905 336623.5189 18847.27751
 -337323.2348 337305.8971 20239.52531
 -336589.0904 337958.0127 21541.52183
 -335895.0121 338576.7962 22631.06856
 -335235.941 339184.1463 23299.14197
 0 0 -0
 0 0 -0
 0 0 -0
 0 0 0
 0 0 0
 -334210.7347 340950.5605 -5269.857927
 -334833.1963 340354.0957 -4206.125191
 -335493.1123 339715.3046 -3123.255312
 -336184.884 339038.9223 -2050.435782
 -336900.5401 338332.506 -1006.362786
 -337626.1463 337609.9179 -0.4186358368
 -338339.9316 336893.2051 964.5507664
 -339015.9011 336209.0364 1890.480264
 -339629.6724 335582.7986 2782.47735
 -340161.6683 335035.2194 3648.625963
 -340597.9799 334581.2988 4499.103425
 -340929.6972 334230.8208 5345.208267
 -341151.0781 333990.1009 6198.846201
 -341258.1971 333863.2944 7072.118188
 -341248.7388 333852.5682 7976.983904
 -341122.2856 333957.7858 8924.960427
 -340880.3485 334176.4778 9926.77958
 -340526.1438 334504.1003 10991.97711
 -340064.8613 334933.8208 12128.36051
 -339505.0689 335455.2038 13341.1295
 -338860.5891 336052.5238 14631.25559
 -338151.2463 336704.3742 15992.81937
 -337402.1716 337384.8975 17409.10116
 -336640.8585 338067.4219 18847.3321
 -335891.6741 338730.706 20252.49105
 -335172.839 339362.7976 21539.05524
 -334499.184 339959.5552 22575.82776
 -333888.9043 340520.7787 23144.54858
 0 0 -0
 0 0 -0
 0 0 0
 0 0 0
 -333374.8296 341754.488 -6079.820487
 -333992.5968 341165.444 -5191.954935
 -334695.086 340490.9239 -4123.276399
 -335426.6851 339781.6824 -3036.19246
 -336170.0437 339054.0651 -1978.377277
 -336909.5118 338323.6916 -965.3215253
 -337626.1893 337609.8748 -0.3520037314
 -338299.1047 336934.329 919.2474478
 -338908.147 336318.153 1799.768562
 -339436.2756 335779.4866 2650.006969
 -339870.4386 335332.4362 3480.445447
 -340201.4041 334987.11 4302.566265
 -340422.9233 334750.3611 5128.382392
 -340530.9488 334626.5113 5970.104219
 -340523.2915 334617.6552 6839.889721
 -340399.5873 334723.6702 7749.633726
 -340161.3206 334942.1897 8710.730083
 -339811.9031 335268.5429 9733.75302
 -339357.0578 335695.4181 10827.96565
 -338805.6444 336212.1274 12000.49814
 -338170.5559 336803.8781 13254.9653
 -337468.9828 337451.7869 14589.32773
 -336721.6426 338134.0485 15992.87119
 -335950.7547 338828.4658 17442.26124
 -335177.3056 339515.7777 18896.60775
 -334420.0187 340181.453 20290.42585
 -333700.1202 340812.2881 21519.4185
 -333076.082 341365.8493 22395.35302
 0 0 -0
 0 0 -0
 0 0 0
 -332098.854 342942.5602 -8521.904425
 -332594.2863 342489.1085 -7356.802738
 -333212.9646 341909.2275 -6250.731321
 -333936.2622 341221.7071 -5117.683832
 -334698.6641 340488.9083 -3997.364126
 -335468.572 339741.365 -2917.7793
 -336225.4274 338999.6411 -1891.187842
 -336950.723 338282.7742 -919.8885625
 -337626.2346 337609.8295 -0.2896806934
 -338234.8402 336998.9598 874.7604159
 -338761.6877 336466.1203 1714.667558
 -339194.8688 336024.2701 2530.256494
 -339525.4765 335683.2018 3333.185391
 -339747.2443 335449.8152 4135.552904
 -339856.1099 335328.4911 4949.636627
 -339849.9366 335321.3299 5787.712994
 -339728.4122 335428.228 6661.913444
 -339493.0657 335646.8556 7584.056685
 -339147.4022 335972.5358 8565.397726
 -338697.2154 336397.973 9616.203403
 -338151.0642 336912.857 10745.03774
 -337520.6937 337503.5826 11957.60509
 -336821.0623 338153.4383 13255.0139
 -336069.7766 338843.4742 14631.35638
 -335286.0342 339553.9505 16070.5079
 -334489.8908 340265.5811 17541.90757
 -333704.0564 340958.488 18994.30158
 -332962.9219 341604.5951 20343.65987
 -332336.7367 342146.9085 21439.63016
 -331865.3221 342572.0476 21947.01535
 0 0 -0
 0 0 0
 -331318.916 343676.42 -9282.539331
 -331838.1266 343198.5797 -8370.421596
 -332502.105 342580.8592 -7250.958576
 -333250.1009 341876.0535 -6083.219438
 -334035.7393 341127.0624 -4931.880033
 -334826.5752 340365.0759 -3827.662269
 -335599.2769 339613.3844 -2783.125453
 -336334.6295 338891.7925 -1800.351187
 -337015.4418 338218.4163 -875.2825818
 -337626.2794 337609.7848 -0.2333170671
 -338153.8251 337080.3543 834.6430684
 -338587.2016 336642.0757 1640.459753
 -338918.0309 336304.2364 2429.034123
 -339140.2672 336073.5485 3212.540312
 -339249.9516 335954.335 4003.299744
 -339245.0184 335948.6829 4813.652041
 -339125.2051 336056.5098 5655.863754
 -338892.0661 336275.5432 6542.012748
 -338549.0886 336601.2161 7483.797909
 -338101.9149 337026.4814 8492.189218
 -337558.6249 337541.598 9576.830887
 -336929.9531 338134.0285 10745.08326
 -336229.291 338788.608 12000.59255
 -335472.4315 339488.04 13341.27661
 -334677.2602 340213.5306 14756.57152
 -333864.0573 340944.9484 16223.58372
 -333057.6542 341659.3938 17701.09907
 -332292.7648 342327.1476 19118.41496
 -331619.962 342908.0087 20351.15849
 -331105.8626 343354.7365 21173.18971
 0 0 -0
 0 0 0
 -330680.302 344262.5493 -10281.35695
 -331218.0025 343770.9573 -9382.697286
 -331901.9351 343140.1619 -8234.441943
 -332663.6089 342428.6205 -7030.9643
 -333462.6893 341672.8237 -5847.019954
 -334267.1701 340903.3515 -4715.421965
 -335051.7858 340145.3445 -3649.218612
 -335796.0458 339419.8898 -2650.535625
 -336482.6792 338745.2379 -1715.13728
 -337096.9192 338137.311 -835.0587999
 -337626.3206 337609.7435 -0.182974113
 -338060.7447 337173.7874 800.8062174
 -338392.3063 336838.2734 1579.850348
 -338615.2463 336609.6665 2349.184928
 -338725.7675 336492.1754 3121.158661
 -338721.8988 336487.8497 3908.140721
 -338603.4273 336596.626 4722.466054
 -338371.9083 336816.3107 5576.363331
 -338030.7558 337142.5003 6481.816641
 -337585.4022 337568.4534 7450.288882
 -337043.4917 338084.9567 8492.232024
 -336415.0458 338680.2551 9616.29188
 -335712.5525 339340.1031 10828.10323
 -334951.0145 340047.9193 12128.55165
 -334148.1426 340784.8802 13511.31055
 -333325.0625 341529.6384 14959.28054
 -332507.8648 342257.4305 16439.0502
 -331729.5998 342939.132 17891.21783
 -331031.7938 343541.5398 19210.23761
 -330483.6989 344013.0596 20184.4222
 0 0 -0
 -330202.3835 344633.399 -12887.10593
 -330365.9165 344520.6905 -11650.16534
 -330799.0602 344142.7153 -10471.12896
 -331441.0459 343560.0675 -9229.538371
 -332192.6396 342864.8677 -7975.210372
 -332994.0561 342112.8746 -6753.589454
 -333805.49 341342.211 -5591.160374
 -334597.9523 340581.6126 -4499.64453
 -335349.0771 339854.0142 -3480.923893
 -336040.9042 339178.3862 -2530.677139
 -336658.709 338570.6612 -1640.827811
 -337190.4255 338044.1486 -801.1257046
 -337626.3564 337609.7077 -0.1371846257
 -337958.9833 337275.8479 774.161061
 -338182.8044 337048.8226 1534.047977
 -338294.1892 336932.7234 2291.888454
 -338291.2677 336929.5557 3060.06091
 -338173.8758 337039.2727 3850.928803
 -337943.5628 337259.7622 4676.80245
 -337603.6646 337586.7831 5549.844548
 -337159.4329 338013.8661 6481.857128
 -336618.2025 338532.1973 7483.881221
 -335989.5774 339130.5161 8565.527067
 -335285.6398 339795.0288 9733.932083
 -334521.2513 340509.2877 10992.21051
 -333714.6263 341253.8838 12337.1909
 -332888.4899 342005.694 13756.08372
 -332072.3037 342736.2925 15221.37386
 -331306.5432 343408.7121 16682.39128
 -330652.3154 343969.6865 18049.16707
 -330213.9703 344330.9583 19151.92594
 -330083.1023 344430.263 19616.5943
 -329619.8856 345160.259 -13674.71962
 -329933.4835 344897.2146 -12715.30918
 -330424.7772 344468.9644 -11509.5812
 -331075.2762 343884.5742 -10219.21969
 -331828.6408 343193.8753 -8921.231614
 -332633.2699 342444.5641 -7661.565897
 -333449.596 341674.4512 -6465.88138
 -334247.5595 340913.2789 -5345.700997
 -335003.8304 340184.9338 -4302.997508
 -335699.9086 339508.9543 -3333.560283
 -336320.9348 338901.4581 -2429.357722
 -336854.9686 338375.6856 -1580.126531
 -337292.5452 337942.3184 -774.393401
 -337626.3844 337609.6798 -0.09549734499
 -337851.1796 337383.8787 755.0703551
 -337963.4421 337268.9174 1503.477281
 -337961.395 337266.7646 2257.503579
 -337844.9219 337377.3882 3029.519797
 -337615.5729 337598.7455 3831.875736
 -337276.6286 337926.7291 4676.841184
 -336833.2198 338355.0748 5576.442773
 -336292.4979 338875.239 6542.135248
 -335663.8583 339476.2511 7584.225827
 -334959.241 340144.5245 8710.949603
 -334193.5774 340863.5764 9927.05412
 -333385.5137 341613.5534 11231.68266
 -332558.6212 342370.4004 12615.21569
 -331743.3958 343104.4488 14054.46005
 -330980.3426 343778.2408 15505.00872
 -330323.3046 344344.5543 16888.27042
 -329833.7519 344753.6659 18068.68216
 -329536.0507 344997.8871 18823.40303
 -329141.4762 345576.0923 -14660.29891
 -329542.5635 345230.7644 -13758.25065
 -330111.9233 344732.821 -12540.79369
 -330800.5476 344117.8077 -11216.21181
 -331570.1908 343417.3439 -9879.662618
 -332382.784 342665.8747 -8582.222693
 -333204.4554 341895.6283 -7351.294592
 -334006.9213 341134.6019 -6199.293275
 -334767.1572 340406.4005 -5128.769475
 -335466.5908 339730.676 -4135.885002
 -336090.3078 339123.6561 -3212.822291
 -336626.4142 338598.5954 -2349.420337
 -337065.5637 338166.1178 -1534.240264
 -337400.6181 337834.4622 -755.2218334
 -337626.4035 337609.6607 -0.05629521533
 -337739.5386 337495.6627 743.6317941
 -337738.3242 337494.416 1488.218025
 -337622.6912 337605.9017 2246.071067
 -337394.2031 337828.1291 3029.557047
 -337056.1176 338157.0858 3851.005229
 -336613.5048 338586.6461 4722.583468
 -336073.4259 339108.4385 5656.024446
 -335445.1843 339711.6657 6662.12147
 -334740.6682 340382.866 7749.892827
 -333974.8259 341105.5942 8925.275512
 -333166.3119 341860.0025 10189.14189
 -332338.3198 342622.3455 11534.3325
 -331519.5128 343364.5431 12941.19308
 -330744.6385 344054.2649 14370.74174
 -330053.5713 344656.8247 15753.87324
 -329487.1416 345140.5571 16973.23273
 -329093.9804 345472.7001 17822.36983
 -328879.5503 345779.5339 -15704.35209
 -329316.1043 345403.1363 -14813.78479
 -329927.4468 344869.8134 -13585.39442
 -330643.6422 344233.9222 -12233.55967
 -331427.7666 343525.1405 -10862.07472
 -332247.906 342771.6914 -9527.21764
 -333074.219 342001.783 -8259.318242
 -333880.192 341241.6565 -7072.521943
 -334643.3785 340514.3672 -5970.44904
 -335345.3307 339839.4896 -4949.927739
 -335971.1502 339233.2961 -4003.541529
 -336508.9705 338709.0805 -3121.354913
 -336949.5032 338277.4751 -2292.042493
 -337285.6863 337946.7063 -1503.591071
 -337512.4257 337722.7867 -743.7075348
 -337626.4132 337609.6509 -0.01945219119
 -337626.0109 337609.2426 739.8461032
 -337511.1959 337721.5555 1488.2548
 -337283.5605 337944.6322 2257.57788
 -336946.3723 338274.517 3060.17468
 -336504.6913 338705.1657 3908.295799
 -335965.5535 339228.308 4813.851009
 -335338.2328 339833.2539 5787.959797
 -334634.5928 340506.6408 6840.188444
 -333869.5419 341232.1239 7977.339821
 -333061.5556 341990.0612 9201.604719
 -332233.1449 342757.3407 10507.8143
 -331410.9776 343507.665 11879.36384
 -330625.2458 344212.733 13282.03951
 -329908.5142 344844.1757 14653.94421
 -329298.4183 345372.3574 15885.77197
 -328864.3417 345744.1351 16766.3089
 -328864.3407 345744.1356 -16766.31845
 -329298.4171 345372.3581 -15885.78105
 -329908.5126 344844.1768 -14653.95255
 -330625.244 344212.7345 -13282.04712
 -331410.9754 343507.6669 -11879.37101
 -332233.1418 342757.3434 -10507.82104
 -333061.5517 341990.0648 -9201.611147
 -333869.5373 341232.1282 -7977.345769
 -334634.5877 340506.6457 -6840.193987
 -335338.2275 339833.259 -5787.964756
 -335965.5485 339228.3129 -4813.855345
 -336504.6866 338705.1703 -3908.299449
 -336946.3683 338274.5209 -3060.1778
 -337283.5571 337944.6356 -2257.580604
 -337511.1933 337721.558 -1488.25721
 -337626.0097 337609.2438 -739.8482205
 -337626.4133 337609.6508 0.01719809834
 -337512.427 337722.7854 743.7051319
 -337285.6883 337946.7043 1503.588435
 -336949.5056 338277.4727 2292.039312
 -336508.9735 338709.0775 3121.351345
 -335971.1538 339233.2926 4003.537194
 -335345.3343 339839.4861 4949.922749
 -334643.3823 340514.3636 5970.443341
 -333880.1953 341241.6534 7072.515688
 -333074.2214 342001.7809 8259.311623
 -332247.9075 342771.6901 9527.210548
 -331427.7673 343525.14 10862.0671
 -330643.6424 344233.9222 12233.55149
 -329927.4467 344869.8139 13585.38561
 -329316.104 345403.137 14813.77539
 -328879.5501 345779.5345 15704.34235
 -329093.9775 345472.7023 -17822.37905
 -329487.1388 345140.5594 -16973.24149
 -330053.5678 344656.8277 -15753.8812
 -330744.6347 344054.2682 -14370.74895
 -331519.5087 343364.5468 -12941.1998
 -332338.3153 342622.3497 -11534.33883
 -333166.3067 341860.0074 -10189.14791
 -333974.8201 341105.5997 -8925.281222
 -334740.6619 340382.8722 -7749.898103
 -335445.1777 339711.6721 -6662.126345
 -336073.4196 339108.4447 -5656.028907
 -336613.4988 338586.652 -4722.587216
 -337056.1123 338157.091 -3851.00851
 -337394.1984 337828.1337 -3029.559879
 -337622.6875 337605.9053 -2246.073629
 -337738.3217 337494.4185 -1488.220261
 -337739.5373 337495.664 -743.6340549
 -337626.4035 337609.6607 0.05394608583
 -337400.6188 337834.4615 755.2191071
 -337065.5648 338166.1167 1534.236962
 -336626.4156 338598.594 2349.416326
 -336090.3097 339123.6542 3212.817768
 -335466.593 339730.6738 4135.87983
 -334767.1596 340406.3982 5128.763569
 -334006.9232 341134.6001 6199.286918
 -333204.4564 341895.6275 7351.287604
 -332382.7842 342665.8746 8582.215267
 -331570.1902 343417.3448 9879.654584
 -330800.5465 344117.809 11216.20322
 -330111.9219 344732.8227 12540.7846
 -329542.5621 345230.7661 13758.24105
 -329141.4749 345576.094 14660.28898
 -329536.0465 344997.8906 -18823.41198
 -329833.7472 344753.6699 -18068.69053
 -330323.2993 344344.559 -16888.27806
 -330980.3368 343778.246 -15505.01577
 -331743.3898 343104.4544 -14054.46658
 -332558.6149 342370.4063 -12615.22187
 -333385.5069 341613.5598 -11231.6886
 -334193.5702 340863.5833 -9927.059752
 -334959.2333 340144.5319 -8710.954848
 -335663.8505 339476.2587 -7584.230683
 -336292.4904 338875.2463 -6542.139635
 -336833.2128 338355.0816 -5576.446671
 -337276.6223 337926.7354 -4676.844572
 -337615.5674 337598.7509 -3831.878708
 -337844.9173 337377.3927 -3029.522445
 -337961.3915 337266.7681 -2257.506132
 -337963.4395 337268.92 -1503.479797
 -337851.1782 337383.8801 -755.0730187
 -337626.3837 337609.6804 0.09253837913
 -337292.545 337942.3186 774.3898377
 -336854.9685 338375.6857 1580.12241
 -336320.9351 338901.4579 2429.353012
 -335699.9093 339508.9536 3333.555065
 -335003.8312 340184.933 4302.991675
 -334247.5598 340913.2787 5345.694559
 -333449.5956 341674.4517 6465.874445
 -332633.2688 342444.5653 7661.558407
 -331828.6389 343193.8774 8921.223539
 -331075.2739 343884.5766 10219.21104
 -330424.7747 344468.9671 11509.57211
 -329933.481 344897.2174 12715.29963
 -329619.8835 345160.2614 13674.7097
 -330083.097 344430.2676 -19616.6031
 -330213.9638 344330.9641 -19151.93407
 -330652.3081 343969.6931 -18049.17455
 -331306.5353 343408.7194 -16682.39825
 -332072.2958 342736.2998 -15221.38044
 -332888.4817 342005.7018 -13756.08993
 -333714.6178 341253.8919 -12337.19677
 -334521.2426 340509.2961 -10992.21598
 -335285.6309 339795.0375 -9733.937269
 -335989.5685 339130.5247 -8565.53176
 -336618.1938 338532.2058 -7483.885439
 -337159.4247 338013.8741 -6481.860832
 -337603.6571 337586.7906 -5549.847835
 -337943.5562 337259.7687 -4676.805389
 -338173.8701 337039.2784 -3850.931547
 -338291.263 336929.5604 -3060.063587
 -338294.1856 336932.727 -2291.891158
 -338182.8018 337048.8252 -1534.050757
 -337958.9813 337275.8499 -774.1640044
 -337626.3549 337609.7093 0.1337343735
 -337190.4241 338044.15 801.1216158
 -336658.7077 338570.6626 1640.823185
 -336040.9034 339178.387 2530.672085
 -335349.0764 339854.0149 3480.918262
 -334597.9511 340581.6138 4499.638434
 -333805.4885 341342.2127 5591.153805
 -332994.0539 342112.8769 6753.582265
 -332192.6368 342864.8706 7975.202521
 -331441.0427 343560.0708 9229.530004
 -330799.0571 344142.7186 10471.12011
 -330365.9135 344520.6937 11650.15599
 -330202.3809 344633.4019 12887.09618
 0 0 0
 -330483.6902 344013.0675 -20184.4297
 -331031.7847 343541.5482 -19210.24485
 -331729.5901 342939.141 -17891.22471
 -332507.8551 342257.4397 -16439.05668
 -333325.0527 341529.6478 -14959.28666
 -334148.1325 340784.8899 -13511.31626
 -334951.0044 340047.9291 -12128.55687
 -335712.5425 339340.1128 -10828.10809
 -336415.0357 338680.265 -9616.296188
 -337043.4821 338084.9662 -8492.235902
 -337585.3932 337568.4623 -7450.292327
 -338030.7473 337142.5087 -6481.819705
 -338371.9006 336816.3184 -5576.366235
 -338603.4205 336596.6328 -4722.468774
 -338721.893 336487.8555 -3908.143512
 -338725.7629 336492.18 -3121.161498
 -338615.2426 336609.6702 -2349.187599
 -338392.303 336838.2767 -1579.853125
 -338060.7416 337173.7905 -800.8094529
 -337626.3178 337609.7463 0.1793037055
 -337096.9163 338137.3138 835.0546745
 -336482.6766 338745.2405 1715.132649
 -335796.0433 339419.8923 2650.53047
 -335051.783 340145.3472 3649.212955
 -334267.1672 340903.3545 4715.415846
 -333462.6859 341672.8272 5847.013115
 -332663.6053 342428.6242 7030.956821
 -331901.9314 343140.1657 8234.433846
 -331217.9991 343770.9608 9382.688709
 -330680.2988 344262.5526 10281.3479
 0 0 -0
 0 0 0
 -331105.8523 343354.746 -21173.19665
 -331619.9514 342908.0186 -20351.16529
 -332292.7537 342327.158 -19118.42159
 -333057.643 341659.4044 -17701.10533
 -333864.0461 340944.9592 -16223.58959
 -334677.2489 340213.5415 -14756.57676
 -335472.42 339488.0512 -13341.28133
 -336229.2798 338788.619 -12000.59672
 -336929.942 338134.0394 -10745.08704
 -337558.6144 337541.6084 -9576.834247
 -338101.9049 337026.4913 -8492.192201
 -338549.0791 336601.2256 -7483.8005
 -338892.0572 336275.552 -6542.015285
 -339125.197 336056.5179 -5655.866199
 -339245.0109 335948.6904 -4813.65453
 -339249.9452 335954.3415 -4003.302265
 -339140.2617 336073.5541 -3212.542772
 -338918.0256 336304.2417 -2429.036581
 -338587.1966 336642.0807 -1640.462652
 -338153.8204 337080.359 -834.6463936
 -337626.2749 337609.7892 0.22962389
 -337015.4374 338218.4207 875.2785108
 -336334.6252 338891.7968 1800.346559
 -335599.2727 339613.3886 2783.120265
 -334826.5711 340365.0799 3827.656498
 -334035.735 341127.0667 4931.873493
 -333250.0966 341876.0578 6083.212145
 -332502.1009 342580.8633 7250.950685
 -331838.123 343198.5833 8370.413266
 -331318.9128 343676.4233 9282.530566
 0 0 -0
 0 0 0
 -331865.3108 342572.0582 -21947.02187
 -332336.7247 342146.9198 -21439.63649
 -332962.9095 341604.6069 -20343.66605
 -333704.0438 340958.5 -18994.30746
 -334489.8784 340265.5931 -17541.91293
 -335286.0219 339553.9625 -16070.51253
 -336069.764 338843.4865 -14631.36046
 -336821.05 338153.4505 -13255.01752
 -337520.6818 337503.5945 -11957.60831
 -338151.0527 336912.8684 -10745.04058
 -338697.2043 336397.984 -9616.205809
 -339147.3915 335972.5465 -8565.39991
 -339493.0556 335646.8659 -7584.058862
 -339728.4025 335428.2378 -6661.91556
 -339849.9276 335321.339 -5787.715049
 -339856.1014 335328.4997 -4949.638728
 -339747.2364 335449.8231 -4135.554971
 -339525.4692 335683.2092 -3333.187565
 -339194.8618 336024.2771 -2530.258922
 -338761.6811 336466.127 -1714.670446
 -338234.8339 336998.9662 -874.7636539
 -337626.2286 337609.8355 0.2860538276
 -336950.7172 338282.78 919.8844012
 -336225.4219 338999.6465 1891.183007
 -335468.5669 339741.3701 2917.773746
 -334698.659 340488.9133 3997.357751
 -333936.2574 341221.7119 5117.676589
 -333212.9603 341909.2319 6250.723511
 -332594.2824 342489.1125 7356.794619
 -332098.851 342942.5634 8521.895918
 0 0 -0
 0 0 0
 0 0 0
 -333076.0685 341365.8621 -22395.35865
 -333700.1065 340812.3012 -21519.42406
 -334420.005 340181.4662 -20290.431
 -335177.2923 339515.7906 -18896.61244
 -335950.7415 338828.4787 -17442.26533
 -336721.6292 338134.0617 -15992.87473
 -337468.9696 337451.7999 -14589.33079
 -338170.5432 336803.8907 -13254.96798
 -338805.632 336212.1398 -12000.50041
 -339357.0458 335695.4302 -10827.96751
 -339811.8915 335268.5546 -9733.754724
 -340161.3092 334942.2013 -8710.731864
 -340399.5763 334723.6814 -7749.635318
 -340523.2808 334617.6661 -6839.89115
 -340530.9383 334626.5219 -5970.105613
 -340422.9134 334750.3712 -5128.383849
 -340201.3945 334987.1197 -4302.567772
 -339870.4294 335332.4455 -3480.447223
 -339436.2667 335779.4955 -2650.009292
 -338908.1385 336318.1615 -1799.771306
 -338299.0968 336934.3369 -919.2507153
 -337626.1818 337609.8823 0.3481442335
 -336909.505 338323.6984 965.3169503
 -336170.0373 339054.0714 1978.371895
 -335426.6794 339781.6882 3036.186124
 -334695.0808 340490.9291 4123.269198
 -333992.5923 341165.4486 5191.947218
 -333374.8254 341754.4922 6079.812568
 0 0 -0
 0 0 -0
 0 0 0
 0 0 0
 -333888.89 340520.7924 -23144.55381
 -334499.1695 339959.5692 -22575.83263
 -335172.8246 339362.8115 -21539.05969
 -335891.6602 338730.7195 -20252.49503
 -336640.8446 338067.4356 -18847.3356
 -337402.1576 337384.9114 -17409.10416
 -338151.2324 336704.3881 -15992.82178
 -338860.5755 336052.5375 -14631.25757
 -339505.0556 335455.2172 -13341.13113
 -340064.8484 334933.8338 -12128.36192
 -340526.1311 334504.1132 -10991.97837
 -340880.3359 334176.4907 -9926.780839
 -341122.2733 333957.7982 -8924.961537
 -341248.7267 333852.5805 -7976.984824
 -341258.1851 333863.3066 -7072.118988
 -341151.0664 333990.1129 -6198.847005
 -340929.6856 334230.8326 -5345.209303
 -340597.9685 334581.3103 -4499.104895
 -340161.6574 335035.2305 -3648.627996
 -339629.6622 335582.809 -2782.479799
 -339015.8916 336209.046 -1890.483323
 -338339.9227 336893.214 -964.5543599
 -337626.138 337609.9262 0.4143285497
 -336900.5328 338332.5133 1006.357725
 -336184.8776 339038.9286 2050.429671
 -335493.1067 339715.3102 3123.248396
 -334833.1915 340354.1005 4206.117647
 -334210.7307 340950.5646 5269.84997
 0 0 -0
 0 0 -0
 0 0 0
 0 0 0
 0 0 0
 -335235.9257 339184.1611 -23299.14634
 -335894.9972 338576.8107 -22631.07259
 -336589.076 337958.0269 -21541.52545
 -337323.2205 337305.9112 -20239.52847
 -338084.6762 336623.5331 -18847.28004
 -338845.64 335933.4379 -17442.1565
 -339571.0384 335268.7354 -16070.35301
 -340230.5288 334659.9889 -14756.36916
 -340801.7883 334130.9079 -13511.06305
 -341270.7019 333697.4381 -12336.89992
 -341630.2831 333368.3814 -11231.34938
 -341876.6468 333149.2439 -10188.7668
 -342006.6244 333044.5591 -9201.187391
 -342018.268 333057.3029 -8258.851234
 -341912.0445 333187.6215 -7350.782974
 -341690.8052 333432.8486 -6465.323155
 -341358.5102 333788.8322 -5590.553027
 -340919.6044 334250.603 -4714.762522
 -340381.2908 334810.0993 -3826.946718
 -339757.5503 335452.1864 -2917.004491
 -339070.2289 336153.7453 -1977.539949
 -338348.6564 336884.323 -1005.46105
 -337626.1013 337609.9628 0.4808163403
 -336927.3639 338305.7023 1036.607887
 -336259.8618 338964.2866 2095.005887
 -335607.7941 339601.6164 3165.746392
 0 0 -0
 0 0 -0
 0 0 -0
 0 0 0
 0 0 0
 0 0 0
 0 0 0
 -336566.8784 337860.3456 -23345.11886
 -337246.8087 337229.4614 -22644.0212
 -337975.3204 336571.7149 -21541.46782
 -338747.9412 335874.299 -20252.38137
 -339532.9302 335159.9394 -18896.44464
 -340282.6451 334472.5426 -17541.69311
 -340961.9208 333846.7369 -16223.3206
 -341546.5184 333307.78 -14958.97109
 -342022.4815 332871.2564 -13755.7296
 -342387.0965 332541.4468 -12614.81805
 -342638.9527 332321.2132 -11533.89173
 -342773.8631 332216.1136 -10507.33013
 -342788.1329 332230.9582 -9526.682062
 -342682.2441 332365.9223 -8581.641162
 -342460.8681 332616.4987 -7660.936379
 -342129.1212 332977.3775 -6752.90984
 -341689.0223 333446.104 -5846.287458
 -341143.2224 334019.2472 -4931.091407
 -340505.0386 334682.264 -3996.5167
 -339797.7915 335410.3743 -3035.283981
 -339055.018 336168.6567 -2049.465793
 -338321.7862 336911.2165 -1035.584765
 -337626.078 337609.9862 0.5371991956
 -336963.7611 338269.413 1048.429163
 0 0 -0
 0 0 -0
 0 0 -0
 0 0 -0
 0 0 0
 0 0 0
 0 0 0
 0 0 0
 0 0 0
 -337877.6537 336549.5069 -23345.06068
 -338594.0695 335877.6075 -22630.95648
 -339379.997 335155.4345 -21538.88653
 -340198.57 334402.6195 -20290.20265