# OOMMF OVF 2.0
#
# Segment count: 1
#
# Begin: Segment
# Begin: Header
#
# Title: Oxs_MinDriver::Magnetization
# Desc: Oxs vector field output
# Desc:  MIF source file: F:/Bogdan/UNIC/2022/Master_degree/Samples/Cylinder0_5000 1.mif
# Desc:  Iteration: 912, State id: 4266
# Desc:  Stage: 4, Stage iteration: 44
# Desc:  Stage simulation time: 0 s
# Desc:  Total simulation time: -2 s
# meshunit: m
# meshtype: rectangular
# xbase: -8.9999999999999995e-09
# ybase: -8.9999999999999995e-09
# zbase: -2.0999999999999999e-08
# xnodes: 10
# ynodes: 10
# znodes: 22
# xstepsize: 2.0000000000000001e-09
# ystepsize: 2.0000000000000001e-09
# zstepsize: 2.0000000000000001e-09
# xmin: -1e-08
# ymin: -1e-08
# zmin: -2.1999999999999998e-08
# xmax: 1e-08
# ymax: 1e-08
# zmax: 2.2000000000000005e-08
# valuedim: 3
# valuelabels: Magnetization_x Magnetization_y Magnetization_z
# valueunits: A/m A/m A/m
#
# End: Header
#
# Begin: Data Text
 0 0 0
 0 0 0
 0 0 0
 8332.112647 31437.83051 476355.0252
 3138.201841 31657.47797 476403.0091
 -3138.201583 31657.47797 476403.0091
 -8332.112391 31437.83051 476355.0252
 0 0 -0
 0 0 -0
 0 0 -0
 0 0 0
 23347.64723 23347.6466 476320.9486
 18562.71769 24341.43087 476481.6802
 10987.20799 26430.18486 476605.2852
 3714.184198 26997.54836 476685.6496
 -3714.183938 26997.54835 476685.6496
 -10987.20773 26430.18487 476605.2852
 -18562.71744 24341.43087 476481.6802
 -23347.64697 23347.6466 476320.9486
 0 0 -0
 0 0 0
 24341.43149 18562.71707 476481.6802
 19162.49221 19162.49156 476694.3141
 11882.08127 19984.13444 476897.601
 4018.873367 20347.85887 477013.296
 -4018.873104 20347.85888 477013.296
 -11882.08101 19984.13444 476897.601
 -19162.49195 19162.49157 476694.3141
 -24341.43123 18562.71707 476481.6802
 0 0 -0
 31437.83113 8332.112021 476355.0251
 26430.18551 10987.20734 476605.2852
 19984.13506 11882.08065 476897.601
 12369.90234 12369.90167 477143.4191
 4181.916982 12585.88488 477279.7695
 -4181.916718 12585.88487 477279.7695
 -12369.90208 12369.90168 477143.4191
 -19984.13481 11882.08064 476897.601
 -26430.18525 10987.20734 476605.2852
 -31437.83088 8332.11202 476355.0252
 31657.4786 3138.201205 476403.0091
 26997.54898 3714.183571 476685.6495
 20347.85954 4018.872701 477013.296
 12585.88549 4181.916361 477279.7695
 4254.022528 4254.021845 477426.0968
 -4254.022262 4254.021852 477426.0968
 -12585.88523 4181.916354 477279.7695
 -20347.85927 4018.872706 477013.296
 -26997.54872 3714.183568 476685.6496
 -31657.47834 3138.201205 476403.0091
 31657.47859 -3138.202214 476403.0091
 26997.549 -3714.184588 476685.6495
 20347.8595 -4018.873729 477013.296
 12585.88555 -4181.917394 477279.7695
 4254.022471 -4254.022884 477426.0968
 -4254.022206 -4254.022889 477426.0968
 -12585.88528 -4181.91739 477279.7695
 -20347.85924 -4018.873733 477013.296
 -26997.54874 -3714.184587 476685.6496
 -31657.47834 -3138.202215 476403.0091
 31437.83114 -8332.113025 476355.0251
 26430.18549 -10987.20836 476605.2852
 19984.1351 -11882.08167 476897.6009
 12369.90229 -12369.9027 477143.419
 4181.917033 -12585.88591 477279.7695
 -4181.916768 -12585.8859 477279.7695
 -12369.90203 -12369.9027 477143.419
 -19984.13484 -11882.08167 476897.6009
 -26430.18523 -10987.20836 476605.2852
 -31437.83089 -8332.113024 476355.0251
 0 0 0
 24341.43151 -18562.71808 476481.6801
 19162.49219 -19162.49258 476694.3141
 11882.08131 -19984.13546 476897.6009
 4018.873328 -20347.8599 477013.296
 -4018.873066 -20347.8599 477013.296
 -11882.08104 -19984.13546 476897.6009
 -19162.49194 -19162.49258 476694.3141
 -24341.43125 -18562.71808 476481.6801
 0 0 -0
 0 0 0
 23347.64724 -23347.64761 476320.9485
 18562.71771 -24341.43187 476481.6801
 10987.20797 -26430.18588 476605.2851
 3714.184222 -26997.54937 476685.6495
 -3714.183961 -26997.54937 476685.6495
 -10987.20771 -26430.18587 476605.2852
 -18562.71745 -24341.43187 476481.6801
 -23347.64698 -23347.64761 476320.9486
 0 0 -0
 0 0 0
 0 0 0
 0 0 0
 8332.112655 -31437.83151 476355.0251
 3138.201835 -31657.47897 476403.009
 -3138.201577 -31657.47897 476403.009
 -8332.112398 -31437.83151 476355.0251
 0 0 -0
 0 0 -0
 0 0 -0
 0 0 0
 0 0 0
 0 0 0
 6973.608785 27156.70565 476640.0669
 2685.395466 27360.01864 476671.8885
 -2685.395218 27360.01863 476671.8885
 -6973.608537 27156.70565 476640.0669
 0 0 -0
 0 0 -0
 0 0 -0
 0 0 0
 20131.95176 20131.95116 476614.3938
 16219.77427 21067.92715 476723.1195
 9577.040789 23172.9131 476805.1674
 3257.520753 23818.54026 476858.4035
 -3257.520502 23818.54028 476858.4035
 -9577.040542 23172.91308 476805.1674
 -16219.77402 21067.92715 476723.1195
 -20131.95152 20131.95116 476614.3938
 0 0 -0
 0 0 0
 21067.92778 16219.77364 476723.1195
 16904.82346 16904.82288 476865.1017
 10572.1978 17801.00719 477014.9097
 3591.385533 18219.69329 477102.7311
 -3591.385283 18219.69326 477102.7311
 -10572.19755 17801.00721 477014.9097
 -16904.82321 16904.82286 476865.1017
 -21067.92753 16219.77364 476723.1195
 0 0 -0
 27156.70627 6973.608166 476640.0669
 23172.91368 9577.0402 476805.1674
 17801.00787 10572.19712 477014.9097
 11119.86191 11119.86136 477204.9546
 3774.69909 11366.08212 477313.7701
 -3774.698834 11366.08215 477313.7701
 -11119.86166 11119.86133 477204.9546
 -17801.00761 10572.19714 477014.9097
 -23172.91344 9577.04019 476805.1674
 -27156.70602 6973.608167 476640.0669
 27360.01924 2685.394861 476671.8885
 23818.54093 3257.520096 476858.4035
 18219.69384 3591.384966 477102.7311
 11366.08284 3774.698378 477313.7701
 3856.472356 3856.471814 477432.8503
 -3856.472103 3856.471792 477432.8503
 -11366.08258 3774.698397 477313.7701
 -18219.6936 3591.38495 477102.7311
 -23818.54067 3257.520104 476858.4035
 -27360.01899 2685.394857 476671.8885
 27360.01926 -2685.395847 476671.8885
 23818.54085 -3257.521091 476858.4035
 18219.69396 -3591.385966 477102.7311
 11366.08269 -3774.699391 477313.7701
 3856.472522 -3856.472824 477432.8503
 -3856.472265 -3856.47281 477432.8503
 -11366.08244 -3774.699404 477313.7701
 -18219.6937 -3591.385957 477102.7311
 -23818.54061 -3257.521098 476858.4035
 -27360.01901 -2685.395845 476671.8885
 27156.70626 -6973.609148 476640.0669
 23172.91374 -9577.041188 476805.1674
 17801.00777 -10572.19813 477014.9097
 11119.86204 -11119.86235 477204.9545
 3774.698943 -11366.08314 477313.7701
 -3774.698691 -11366.08315 477313.7701
 -11119.86178 -11119.86235 477204.9545
 -17801.00753 -10572.19813 477014.9097
 -23172.91349 -9577.041185 476805.1674
 -27156.70601 -6973.609148 476640.0669
 0 0 0
 21067.92775 -16219.77463 476723.1195
 16904.82353 -16904.82386 476865.1016
 10572.1977 -17801.0082 477014.9097
 3591.385646 -18219.69428 477102.7311
 -3591.385392 -18219.69428 477102.7311
 -10572.19746 -17801.0082 477014.9097
 -16904.82328 -16904.82386 476865.1017
 -21067.92751 -16219.77463 476723.1195
 0 0 -0
 0 0 0
 20131.95179 -20131.95215 476614.3937
 16219.77425 -21067.92813 476723.1195
 9577.040847 -23172.91408 476805.1674
 3257.520686 -23818.54126 476858.4035
 -3257.520436 -23818.54126 476858.4035
 -9577.040595 -23172.91408 476805.1674
 -16219.774 -21067.92813 476723.1195
 -20131.95154 -20131.95214 476614.3937
 0 0 -0
 0 0 0
 0 0 0
 0 0 0
 6973.608775 -27156.70663 476640.0669
 2685.395489 -27360.01962 476671.8885
 -2685.395241 -27360.01962 476671.8885
 -6973.608529 -27156.70663 476640.0669
 0 0 -0
 0 0 -0
 0 0 -0
 0 0 0
 0 0 0
 0 0 0
 5550.878984 22026.30403 476923.3701
 2150.712239 22197.90345 476942.8675
 -2150.712007 22197.90346 476942.8675
 -5550.878754 22026.30402 476923.3701
 0 0 -0
 0 0 -0
 0 0 -0
 0 0 0
 16322.10756 16322.10697 476905.7023
 13220.16235 17116.30521 476973.9308
 7794.271618 18935.58558 477024.6998
 2656.73644 19535.78644 477056.7745
 -2656.736208 19535.78641 477056.7745
 -7794.271382 18935.5856 477024.6998
 -13220.16212 17116.3052 476973.9308
 -16322.10733 16322.10697 476905.7023
 0 0 -0
 0 0 0
 17116.30577 13220.16178 476973.9308
 13866.22218 13866.22152 477061.1356
 8728.482802 14712.65525 477157.4401
 2975.813602 15127.60331 477215.0159
 -2975.813364 15127.60335 477215.0159
 -8728.482574 14712.65521 477157.4401
 -13866.22194 13866.22155 477061.1356
 -17116.30554 13220.16177 476973.9308
 0 0 -0
 22026.3046 5550.878407 476923.3701
 18935.58623 7794.270978 477024.6998
 14712.65575 8728.482288 477157.4401
 9269.120066 9269.119347 477284.0225
 3159.990848 9520.528959 477358.6129
 -3159.990614 9520.528913 477358.6129
 -9269.119822 9269.119387 477284.0225
 -14712.65553 8728.482257 477157.4401
 -18935.58599 7794.270994 477024.6998
 -22026.30437 5550.878402 476923.3701
 22197.90407 2150.71163 476942.8674
 19535.78696 2656.735899 477056.7745
 15127.60402 2975.812908 477215.0159
 9520.529428 3159.990367 477358.6129
 3244.50974 3244.508988 477441.9521
 -3244.509499 3244.509028 477441.9521
 -9520.529201 3159.990331 477358.6129
 -15127.60377 2975.812935 477215.0159
 -19535.78674 2656.735882 477056.7745
 -22197.90383 2150.711634 476942.8674
 22197.90403 -2150.712585 476942.8674
 19535.78708 -2656.736857 477056.7745
 15127.60384 -2975.81388 477215.0159
 9520.529659 -3159.991335 477358.6129
 3244.509487 -3244.509972 477441.9521
 -3244.509253 -3244.509999 477441.9521
 -9520.529413 -3159.991311 477358.6129
 -15127.60362 -2975.813899 477215.0159
 -19535.78684 -2656.736846 477056.7745
 -22197.90381 -2150.712589 476942.8674
 22026.30463 -5550.879356 476923.3701
 18935.58614 -7794.271941 477024.6998
 14712.65591 -8728.483243 477157.4401
 9269.119865 -9269.120332 477284.0225
 3159.991072 -9520.529917 477358.6129
 -3159.990833 -9520.529904 477358.6129
 -9269.119637 -9269.120344 477284.0225
 -14712.65567 -8728.483234 477157.4401
 -18935.58592 -7794.271947 477024.6998
 -22026.3044 -5550.879354 476923.3701
 0 0 0
 17116.30582 -13220.16274 476973.9308
 13866.22208 -13866.2225 477061.1356
 8728.482954 -14712.6562 477157.4401
 2975.813432 -15127.6043 477215.0159
 -2975.813198 -15127.6043 477215.0159
 -8728.482714 -14712.65619 477157.4401
 -13866.22185 -13866.2225 477061.1356
 -17116.30559 -13220.16273 476973.9308
 0 0 -0
 0 0 0
 16322.10756 -16322.10792 476905.7023
 13220.1624 -17116.30616 476973.9308
 7794.271537 -18935.58655 477024.6998
 2656.736545 -19535.78738 477056.7745
 -2656.73631 -19535.78738 477056.7745
 -7794.271307 -18935.58655 477024.6998
 -13220.16216 -17116.30616 476973.9308
 -16322.10733 -16322.10792 476905.7023
 0 0 -0
 0 0 0
 0 0 0
 0 0 0
 5550.879009 -22026.30498 476923.3701
 2150.712208 -22197.90441 476942.8674
 -2150.711977 -22197.90441 476942.8674
 -5550.878777 -22026.30498 476923.3701
 0 0 -0
 0 0 -0
 0 0 -0
 0 0 0
 0 0 0
 0 0 0
 4292.238751 17216.85967 477134.1821
 1665.316756 17350.73144 477145.7326
 -1665.316546 17350.73142 477145.7326
 -4292.238541 17216.85968 477134.1821
 0 0 -0
 0 0 -0
 0 0 -0
 0 0 0
 12759.15504 12759.15449 477122.9184
 10349.40921 13385.84572 477164.1019
 6093.299498 14841.52323 477194.3757
 2077.611171 15337.07337 477213.0855
 -2077.610957 15337.07341 477213.0855
 -6093.29929 14841.5232 477194.3757
 -10349.409 13385.84573 477164.1019
 -12759.15483 12759.15449 477122.9184
 0 0 -0
 0 0 0
 13385.84631 10349.40862 477164.1019
 10886.26422 10886.26373 477215.7267
 6875.182683 11598.1059 477273.5977
 2348.681001 11957.07905 477308.4781
 -2348.680791 11957.07899 477308.4781
 -6875.182463 11598.10595 477273.5977
 -10886.26402 10886.26369 477215.7267
 -13385.8461 10349.40863 477164.1019
 0 0 -0
 17216.86025 4292.238178 477134.1821
 14841.52373 6093.29899 477194.3757
 11598.10658 6875.182008 477273.5977
 7344.845193 7344.844767 477351.0006
 2511.245387 7569.207651 477397.3943
 -2511.245168 7569.20772 477397.3943
 -7344.844989 7344.844706 477351.0006
 -11598.10636 6875.182053 477273.5977
 -14841.52353 6093.298965 477194.3757
 -17216.86004 4292.238182 477134.1821
 17350.73197 1665.316214 477145.7326
 15337.07403 2077.610535 477213.0855
 11957.07949 2348.680545 477308.4781
 7569.208399 2511.244656 477397.3942
 2587.799864 2587.79947 477449.9742
 -2587.799653 2587.799407 477449.9742
 -7569.208172 2511.244711 477397.3942
 -11957.07929 2348.680503 477308.4781
 -15337.0738 2077.61056 477213.0855
 -17350.73177 1665.316205 477145.7326
 17350.73202 -1665.317133 477145.7326
 15337.07389 -2077.611462 477213.0855
 11957.07971 -2348.681471 477308.4781
 7569.208118 -2511.245598 477397.3942
 2587.800174 -2587.8004 477449.9742
 -2587.799954 -2587.800354 477449.9742
 -7569.207915 -2511.245639 477397.3942
 -11957.07948 -2348.68144 477308.4781
 -15337.07369 -2077.611482 477213.0855
 -17350.7318 -1665.317127 477145.7326
 17216.86023 -4292.239095 477134.1821
 14841.52384 -6093.299908 477194.3757
 11598.1064 -6875.18295 477273.5977
 7344.845441 -7344.845683 477351.0006
 2511.245114 -7569.208608 477397.3942
 -2511.244903 -7569.208635 477397.3942
 -7344.845217 -7344.845659 477351.0006
 -11598.10619 -6875.182968 477273.5977
 -14841.52362 -6093.299896 477194.3757
 -17216.86002 -4292.239097 477134.1821
 0 0 0
 13385.84627 -10349.40955 477164.1019
 10886.26435 -10886.26464 477215.7267
 6875.182504 -11598.10685 477273.5977
 2348.681211 -11957.07996 477308.4781
 -2348.680994 -11957.07995 477308.4781
 -6875.182298 -11598.10686 477273.5977
 -10886.26413 -10886.26464 477215.7267
 -13385.84606 -10349.40955 477164.1019
 0 0 -0
 0 0 0
 12759.15507 -12759.15541 477122.9183
 10349.40917 -13385.84664 477164.1019
 6093.299604 -14841.52414 477194.3757
 2077.611047 -15337.07432 477213.0855
 -2077.610836 -15337.07432 477213.0855
 -6093.299389 -14841.52414 477194.3757
 -10349.40896 -13385.84665 477164.1019
 -12759.15486 -12759.15541 477122.9184
 0 0 -0
 0 0 0
 0 0 0
 0 0 0
 4292.238732 -17216.8606 477134.1821
 1665.316799 -17350.73235 477145.7326
 -1665.316587 -17350.73235 477145.7326
 -4292.238523 -17216.8606 477134.1821
 0 0 -0
 0 0 -0
 0 0 -0
 0 0 0
 0 0 0
 0 0 0
 3247.396746 13111.95792 477272.8803
 1260.207633 13210.98483 477279.5335
 -1260.207446 13210.98485 477279.5335
 -3247.396561 13111.9579 477272.8803
 0 0 -0
 0 0 -0
 0 0 -0
 0 0 0
 9719.123064 9719.122523 477266.1193
 7882.757996 10191.49212 477290.1287
 4634.394721 11307.54342 477307.5876
 1579.671121 11691.27668 477318.2272
 -1579.670935 11691.27662 477318.2272
 -4634.39453 11307.54347 477307.5876
 -7882.757812 10191.4921 477290.1287
 -9719.122876 9719.122527 477266.1193
 0 0 -0
 0 0 0
 10191.49262 7882.757496 477290.1287
 8297.87653 8297.875908 477319.7689
 5246.295215 8855.301366 477353.0468
 1793.642459 9140.410207 477373.1319
 -1793.642267 9140.410292 477373.1319
 -5246.295035 8855.301293 477353.0468
 -8297.876334 8297.875955 477319.7689
 -10191.49244 7882.757474 477290.1287
 0 0 -0
 13111.95844 3247.39623 477272.8803
 11307.54404 4634.39412 477307.5876
 8855.301777 5246.294794 477353.0468
 5621.177418 5621.17671 477397.8174
 1924.744163 5803.110932 477424.8533
 -1924.743978 5803.110833 477424.8533
 -5621.177218 5621.176796 477397.8174
 -8855.301602 5246.294729 477353.0468
 -11307.54384 4634.394155 477307.5876
 -13111.95825 3247.39622 477272.8803
 13210.9854 1260.207073 477279.5334
 11691.27712 1579.670659 477318.2272
 9140.410908 1793.641786 477373.1319
 5803.11128 1924.743795 477424.8533
 1987.504186 1987.503432 477455.7267
 -1987.503991 1987.503526 477455.7267
 -5803.111105 1924.743712 477424.8533
 -9140.410703 1793.64185 477373.1319
 -11691.27694 1579.67062 477318.2272
 -13210.98521 1260.207084 477279.5334
 13210.98536 -1260.207962 477279.5334
 11691.27727 -1579.671547 477318.2272
 9140.410673 -1793.642689 477373.1319
 5803.111582 -1924.744688 477424.8533
 1987.503856 -1987.504344 477455.7267
 -1987.503672 -1987.504419 477455.7267
 -5803.111379 -1924.744621 477424.8533
 -9140.410501 -1793.64274 477373.1319
 -11691.27707 -1579.671516 477318.2272
 -13210.98518 -1260.207972 477279.5334
 13111.95847 -3247.397113 477272.8803
 11307.54393 -4634.395018 477307.5875
 8855.301981 -5246.295675 477353.0468
 5621.177157 -5621.177629 477397.8174
 1924.744455 -5803.111809 477424.8533
 -1924.744261 -5803.111759 477424.8533
 -5621.17698 -5621.177673 477397.8174
 -8855.301779 -5246.295641 477353.0468
 -11307.54375 -4634.395038 477307.5876
 -13111.95828 -3247.397107 477272.8803
 0 0 0
 10191.49269 -7882.758384 477290.1286
 8297.876401 -8297.876817 477319.7689
 5246.295413 -8855.30224 477353.0468
 1793.642238 -9140.411134 477373.1319
 -1793.642053 -9140.411162 477373.1319
 -5246.295216 -8855.302215 477353.0468
 -8297.876222 -8297.876833 477319.7689
 -10191.4925 -7882.758375 477290.1286
 0 0 -0
 0 0 0
 9719.123062 -9719.123416 477266.1192
 7882.758063 -10191.49301 477290.1286
 4634.394617 -11307.54434 477307.5875
 1579.671256 -11691.27755 477318.2271
 -1579.671067 -11691.27754 477318.2271
 -4634.394434 -11307.54435 477307.5875
 -7882.757872 -10191.493 477290.1286
 -9719.122877 -9719.123416 477266.1193
 0 0 -0
 0 0 0
 0 0 0
 0 0 0
 3247.396779 -13111.95881 477272.8803
 1260.207593 -13210.98574 477279.5334
 -1260.207407 -13210.98574 477279.5334
 -3247.396592 -13111.95881 477272.8803
 0 0 -0
 0 0 -0
 0 0 -0
 0 0 0
 0 0 0
 0 0 0
 2408.949491 9767.948417 477357.9951
 934.7652319 9838.687793 477361.7053
 -934.7650722 9838.687769 477361.7053
 -2408.949331 9767.948431 477357.9951
 0 0 -0
 0 0 -0
 0 0 -0
 0 0 0
 7242.130964 7242.130474 477354.1394
 5869.761452 7587.329114 477367.6252
 3446.156928 8418.415472 477377.3409
 1174.020452 8704.107127 477383.2124
 -1174.02029 8704.107199 477383.2124
 -3446.156771 8418.415413 477377.3409
 -5869.761287 7587.329141 477367.6252
 -7242.130805 7242.130461 477354.1394
 0 0 -0
 0 0 0
 7587.329659 5869.760907 477367.6252
 6176.924395 6176.923975 477384.0828
 3905.052315 6594.106367 477402.4923
 1335.180095 6808.73538 477413.5835
 -1335.179937 6808.735267 477413.5835
 -3905.052145 6594.106463 477402.4923
 -6176.924243 6176.923908 477384.0828
 -7587.329494 5869.760932 477367.6252
 0 0 -0
 9767.948951 2408.94897 477357.995
 8418.415904 3446.156486 477377.3409
 6594.107018 3905.051678 477402.4923
 4188.391439 4188.391098 477427.2573
 1434.840366 4326.917551 477442.2377
 -1434.840199 4326.917687 477442.2377
 -4188.391289 4188.390979 477427.2573
 -6594.106842 3905.051765 477402.4923
 -8418.415753 3446.156436 477377.3409
 -9767.948787 2408.94898 477357.995
 9838.688273 934.7647473 477361.7053
 8704.107747 1174.01986 477383.2124
 6808.735729 1335.179717 477413.5835
 4326.918277 1434.839663 477442.2377
 1482.939093 1482.938796 477459.3942
 -1482.938936 1482.938661 477459.3942
 -4326.9181 1434.839782 477442.2377
 -6808.735585 1335.179626 477413.5835
 -8704.107572 1174.019915 477383.2124
 -9838.688117 934.7647295 477361.7053
 9838.688321 -934.7656081 477361.7053
 8704.107608 -1174.020729 477383.2124
 6808.735958 -1335.18058 477413.5835
 4326.917988 -1434.840543 477442.2377
 1482.93941 -1482.93966 477459.3942
 -1482.939242 -1482.939545 477459.3942
 -4326.91784 -1434.840644 477442.2377
 -6808.735778 -1335.180503 477413.5835
 -8704.107461 -1174.020776 477383.2124
 -9838.688155 -934.7655928 477361.7053
 9767.94893 -2408.94983 477357.995
 8418.416021 -3446.157343 477377.3409
 6594.106828 -3905.052561 477402.4923
 4188.391695 -4188.391948 477427.2573
 1434.840087 -4326.91845 477442.2377
 -1434.83993 -4326.918534 477442.2377
 -4188.391519 -4188.391874 477427.2573
 -6594.106682 -3905.052616 477402.4923
 -8418.415849 -3446.15731 477377.3409
 -9767.948772 -2408.949837 477357.995
 0 0 0
 7587.329615 -5869.761782 477367.6252
 6176.924534 -6176.924827 477384.0828
 3905.052132 -6594.107262 477402.4923
 1335.18031 -6808.736223 477413.5835
 -1335.180144 -6808.736169 477413.5835
 -3905.05198 -6594.107308 477402.4923
 -6176.924363 -6176.924794 477384.0828
 -7587.32946 -5869.761794 477367.6252
 0 0 -0
 0 0 0
 7242.131001 -7242.131338 477354.1394
 5869.761409 -7587.329987 477367.6252
 3446.157038 -8418.416325 477377.3409
 1174.020326 -8704.10802 477383.2124
 -1174.020167 -8704.108048 477383.2124
 -3446.156872 -8418.416302 477377.3409
 -5869.761251 -7587.329998 477367.6252
 -7242.130839 -7242.131331 477354.1394
 0 0 -0
 0 0 0
 0 0 0
 0 0 0
 2408.949473 -9767.949295 477357.995
 934.7652751 -9838.688656 477361.7053
 -934.765114 -9838.688648 477361.7053
 -2408.949314 -9767.949299 477357.995
 0 0 -0
 0 0 -0
 0 0 -0
 0 0 0
 0 0 0
 0 0 0
 1746.972252 7103.666434 477407.9569
 677.7878997 7152.849688 477409.9377
 -677.7877667 7152.849717 477409.9377
 -1746.972121 7103.666416 477407.9569
 0 0 -0
 0 0 -0
 0 0 -0
 0 0 0
 5267.990444 5267.989951 477405.8733
 4266.114527 5513.660983 477413.1032
 2501.571926 6116.121947 477418.272
 851.7346019 6322.282939 477421.3805
 -851.7344709 6322.282847 477421.3805
 -2501.571789 6116.122019 477418.272
 -4266.114397 5513.660946 477413.1032
 -5267.99031 5267.989961 477405.8733
 0 0 -0
 0 0 0
 5513.661428 4266.114077 477413.1032
 4485.976975 4485.976399 477421.8505
 2834.326368 4787.517477 477431.5842
 968.8124603 4942.866254 477437.4313
 -968.8123232 4942.866398 477437.4313
 -2834.326243 4787.517354 477431.5842
 -4485.976833 4485.976481 477421.8505
 -5513.661301 4266.114041 477413.1032
 0 0 -0
 7103.666906 1746.971785 477407.9569
 6116.122518 2501.571372 477418.272
 4787.51783 2834.326003 477431.5842
 3040.005092 3040.004424 477444.644
 1041.359418 3140.786786 477452.5341
 -1041.359289 3140.786609 477452.5341
 -3040.004945 3040.004579 477444.644
 -4787.517712 2834.325888 477431.5842
 -6116.122374 2501.571435 477418.272
 -7103.666775 1746.971769 477407.9569
 7152.850214 677.7873884 477409.9377
 6322.283325 851.7341931 477421.3805
 4942.866916 968.8118326 477437.4313
 3140.787068 1041.359113 477452.5341
 1076.470611 1076.469893 477461.573
 -1076.47047 1076.470075 477461.573
 -3140.78695 1041.358952 477452.5341
 -4942.866763 968.811955 477437.4313
 -6322.283206 851.7341187 477421.3805
 -7152.850076 677.7874112 477409.9377
 7152.850177 -677.788233 477409.9377
 6322.283452 -851.7350363 477421.3805
 4942.866715 -968.8126881 477437.4313
 3140.787324 -1041.359957 477452.5341
 1076.470334 -1076.470757 477461.573
 -1076.470206 -1076.470918 477461.573
 -3140.787174 -1041.359814 477452.5341
 -4942.866601 -968.8127978 477437.4313
 -6322.283304 -851.7349696 477421.3805
 -7152.850049 -677.7882541 477409.9377
 7103.666937 -1746.972625 477407.9569
 6116.122424 -2501.572226 477418.272
 4787.518006 -2834.326838 477431.5842
 3040.004871 -3040.005297 477444.6439
 1041.359663 -3140.787614 477452.5341
 -1041.359524 -3140.787488 477452.5341
 -3040.004751 -3040.005408 477444.6439
 -4787.517856 -2834.326755 477431.5842
 -6116.122302 -2501.572273 477418.272
 -7103.6668 -1746.972612 477407.9569
 0 0 0
 5513.661489 -4266.114922 477413.1032
 4485.976868 -4485.977264 477421.8505
 2834.326537 -4787.518306 477431.5842
 968.8122758 -4942.867136 477437.4313
 -968.8121461 -4942.867222 477437.4313
 -2834.326393 -4787.518232 477431.5842
 -4485.976745 -4485.977314 477421.8505
 -5513.661351 -4266.114899 477413.1032
 0 0 -0
 0 0 0
 5267.990447 -5267.990802 477405.8733
 4266.114586 -5513.661824 477413.1032
 2501.57184 -6116.122816 477418.272
 851.734716 -6322.283771 477421.3805
 -851.7345805 -6322.283723 477421.3805
 -2501.571712 -6116.122854 477418.272
 -4266.114449 -5513.661803 477413.1032
 -5267.990315 -5267.990807 477405.8733
 0 0 -0
 0 0 0
 0 0 0
 0 0 0
 1746.972281 -7103.667287 477407.9569
 677.7878672 -7152.85055 477409.9377
 -677.7877351 -7152.850564 477409.9377
 -1746.972148 -7103.667277 477407.9569
 0 0 -0
 0 0 -0
 0 0 -0
 0 0 0
 0 0 0
 0 0 0
 1224.628273 4988.938116 477436.3644
 475.0498985 5022.070345 477437.3513
 -475.0497954 5022.070309 477437.3513
 -1224.628169 4988.938137 477436.3644
 0 0 -0
 0 0 -0
 0 0 -0
 0 0 0
 3700.481893 3700.481444 477435.3194
 2994.31243 3869.556716 477438.93
 1754.028184 4290.996431 477441.4959
 596.9016782 4434.382578 477443.0346
 -596.9015722 4434.382687 477443.0346
 -1754.028085 4290.996344 477441.4959
 -2994.312322 3869.556757 477438.93
 -3700.481791 3700.481427 477435.3194
 0 0 -0
 0 0 0
 3869.557219 2994.311929 477438.93
 3145.977359 3145.976977 477443.2709
 1986.194052 3355.662383 477448.0766
 678.6342793 3463.608663 477450.9547
 -678.6341785 3463.608489 477450.9547
 -1986.193939 3355.662531 477448.0766
 -3145.977264 3145.976876 477443.2709
 -3869.55711 2994.311969 477438.93
 0 0 -0
 4988.938609 1224.627794 477436.3644
 4290.996824 1754.027781 477441.4959
 3355.662987 1986.193462 477448.0766
 2129.40277 2129.402468 477454.5032
 729.2035784 2199.544636 477458.3768
 -729.2034683 2199.544853 477458.3768
 -2129.402678 2129.402278 477454.5032
 -3355.662868 1986.193602 477448.0766
 -4290.99673 1754.027702 477441.4959
 -4988.938501 1224.627812 477436.3644
 5022.070786 475.0494542 477437.3513
 4434.383155 596.9011321 477443.0346
 3463.608973 678.6339395 477450.9547
 2199.545316 729.2029228 477458.3768
 753.6743312 753.6740753 477462.8103
 -753.6742323 753.6738464 477462.8103
 -2199.545195 729.2031251 477458.3768
 -3463.608887 678.6337849 477450.9547
 -4434.383037 596.9012249 477443.0346
 -5022.070686 475.0494244 477437.3513
 5022.070821 -475.0502885 477437.3513
 4434.383055 -596.9019726 477443.0346
 3463.609138 -678.6347747 477450.9547
 2199.545111 -729.2037728 477458.3768
 753.6745524 -753.6749103 477462.8103
 -753.6744409 -753.6746997 477462.8103
 -2199.545022 -729.2039594 477458.3768
 -3463.609014 -678.6346321 477450.9547
 -4434.382965 -596.9020592 477443.0346
 -5022.070712 -475.0502609 477437.3513
 4988.938596 -1224.628628 477436.3644
 4290.996911 -1754.028613 477441.4959
 3355.662853 -1986.194316 477448.0766
 2129.402952 -2129.403292 477454.5032
 729.2033844 -2199.545502 477458.3768
 -729.2032851 -2199.545673 477458.3768
 -2129.402833 -2129.403142 477454.5032
 -3355.662765 -1986.194428 477448.0766
 -4290.996795 -1754.028548 477441.4959
 -4988.938494 -1224.628643 477436.3644
 0 0 0
 3869.557191 -2994.312777 477438.93
 3145.977461 -3145.977805 477443.2709
 1986.193925 -3355.663248 477448.0766
 678.634429 -3463.609482 477450.9547
 -678.6343201 -3463.609361 477450.9547
 -1986.19383 -3355.66335 477448.0766
 -3145.977346 -3145.977734 477443.2709
 -3869.557092 -2994.312806 477438.93
 0 0 -0
 0 0 0
 3700.481927 -3700.482283 477435.3193
 2994.312404 -3869.557563 477438.93
 1754.028264 -4290.997261 477441.4959
 596.9015914 -4434.383444 477443.0346
 -596.9014894 -4434.383512 477443.0346
 -1754.028155 -4290.997205 477441.4959
 -2994.312303 -3869.55759 477438.93
 -3700.481821 -3700.482271 477435.3193
 0 0 -0
 0 0 0
 0 0 0
 0 0 0
 1224.628262 -4988.93897 477436.3644
 475.0499295 -5022.071185 477437.3513
 -475.0498248 -5022.071163 477437.3513
 -1224.62816 -4988.938982 477436.3644
 0 0 -0
 0 0 -0
 0 0 -0
 0 0 0
 0 0 0
 0 0 0
 805.5169054 3285.447808 477452.0167
 312.4249005 3306.530783 477452.4485
 -312.4248256 3306.530822 477452.4485
 -805.5168322 3285.447784 477452.0167
 0 0 -0
 0 0 -0
 0 0 -0
 0 0 0
 2437.338303 2437.337843 477451.5578
 1970.912931 2546.840215 477453.1395
 1153.647394 2823.377039 477454.2585
 392.4263886 2916.962763 477454.9284
 -392.426316 2916.962641 477454.9284
 -1153.647315 2823.377135 477454.2585
 -1970.912859 2546.840166 477453.1395
 -2437.338227 2437.337858 477451.5578
 0 0 -0
 0 0 0
 2546.840632 1970.912509 477453.1395
 2069.208999 2069.208464 477455.0325
 1305.482738 2205.946987 477457.1193
 445.8800164 2276.238751 477458.366
 -445.8799379 2276.238947 477458.366
 -1305.482672 2205.946819 477457.1193
 -2069.208914 2069.208577 477455.0325
 -2546.840563 1970.912462 477453.1395
 0 0 -0
 3285.44825 805.5164689 477452.0167
 2823.377569 1153.64688 477454.2585
 2205.94732 1305.482393 477457.1193
 1398.862877 1398.86226 477459.9016
 478.8621995 1444.534127 477461.5747
 -478.8621295 1444.533878 477461.5747
 -1398.862789 1398.862477 477459.9016
 -2205.94726 1305.482231 477457.1193
 -2823.377484 1153.64697 477454.2585
 -3285.448177 805.5164466 477452.0167
 3306.531275 312.4244248 477452.4485
 2916.963127 392.4260028 477454.9284
 2276.239365 445.8794369 477458.366
 1444.534394 478.8619105 477461.5747
 494.8021227 494.8014572 477463.4872
 -494.8020413 494.8017239 477463.4872
 -1444.534334 478.8616744 477461.5747
 -2276.239272 445.8796166 477458.366
 -2916.963066 392.425894 477454.9284
 -3306.531195 312.4244587 477452.4485
 3306.531253 -312.4252625 477452.4485
 2916.963205 -392.4268397 477454.9284
 2276.239246 -445.8802834 477458.366
 1444.534545 -478.8627483 477461.5747
 494.801965 -494.8023097 477463.4872
 -494.8018958 -494.8025612 477463.4872
 -1444.534454 -478.8625257 477461.5747
 -2276.239189 -445.8804534 477458.366
 -2916.963116 -392.4267368 477454.9284
 -3306.531183 -312.4252952 477452.4485
 3285.448272 -805.5173023 477452.0167
 2823.377515 -1153.647726 477454.2585
 2205.947428 -1305.483224 477457.1193
 1398.862749 -1398.863121 477459.9016
 478.8623399 -1444.534953 477461.5747
 -478.8622592 -1444.534744 477461.5747
 -1398.862688 -1398.863304 477459.9016
 -2205.947337 -1305.483087 477457.1193
 -2823.377451 -1153.647804 477454.2585
 -3285.448194 -805.5172829 477452.0167
 0 0 0
 2546.840674 -1970.913349 477453.1395
 2069.208939 -2069.209319 477455.0325
 1305.482839 -2205.947814 477457.1193
 445.8799125 -2276.239619 477458.366
 -445.8798413 -2276.239771 477458.366
 -1305.482754 -2205.947685 477457.1193
 -2069.208874 -2069.209408 477455.0325
 -2546.840595 -1970.913312 477453.1395
 0 0 -0
 0 0 0
 2437.338313 -2437.338689 477451.5578
 1970.912972 -2546.841052 477453.1395
 1153.647347 -2823.377898 477454.2585
 392.4264543 -2916.963595 477454.9284
 -392.4263772 -2916.963507 477454.9284
 -1153.647277 -2823.377968 477454.2585
 -1970.912893 -2546.841015 477453.1395
 -2437.33824 -2437.3387 477451.5578
 0 0 -0
 0 0 0
 0 0 0
 0 0 0
 805.5169257 -3285.448657 477452.0167
 312.4248836 -3306.531639 477452.4485
 -312.4248095 -3306.531666 477452.4485
 -805.5168503 -3285.44864 477452.0167
 0 0 -0
 0 0 -0
 0 0 -0
 0 0 0
 0 0 0
 0 0 0
 456.4580559 1863.045198 477460.147
 177.0206525 1874.714518 477460.2867
 -177.0206084 1874.714477 477460.2867
 -456.4580105 1863.045222 477460.147
 0 0 -0
 0 0 -0
 0 0 -0
 0 0 0
 1382.276148 1382.275718 477459.9982
 1117.235462 1443.644832 477460.5104
 653.6238391 1600.039746 477460.8716
 222.273997 1652.756946 477461.0877
 -222.2739502 1652.757073 477461.0877
 -653.6237987 1600.039645 477460.8716
 -1117.235413 1443.644881 477460.5104
 -1382.276105 1382.2757 477459.9982
 0 0 -0
 0 0 0
 1443.645306 1117.23499 477460.5104