# OOMMF OVF 2.0
#
# Segment count: 1
#
# Begin: Segment
# Begin: Header
#
# Title: Oxs_MinDriver::Magnetization
# Desc: Oxs vector field output
# Desc:  MIF source file: F:/Bogdan/UNIC/2022/Master_degree/Samples/Cylinder11_7.mif
# Desc:  Iteration: 766, State id: 1716
# Desc:  Stage: 0, Stage iteration: 766
# Desc:  Stage simulation time: -1 s
# Desc:  Total simulation time: -2 s
# meshunit: m
# meshtype: rectangular
# xbase: -1.05e-08
# ybase: -1.05e-08
# zbase: -6.4999999999999995e-09
# xnodes: 22
# ynodes: 22
# znodes: 14
# xstepsize: 1.0000000000000001e-09
# ystepsize: 1.0000000000000001e-09
# zstepsize: 1.0000000000000001e-09
# xmin: -1.0999999999999999e-08
# ymin: -1.0999999999999999e-08
# zmin: -6.9999999999999998e-09
# xmax: 1.1000000000000003e-08
# ymax: 1.1000000000000003e-08
# zmax: 7.0000000000000015e-09
# valuedim: 3
# valuelabels: Magnetization_x Magnetization_y Magnetization_z
# valueunits: A/m A/m A/m
#
# End: Header
#
# Begin: Data Text
 0 0 0
 0 0 0
 0 0 0
 0 0 0
 0 0 0
 0 0 0
 0 0 0
 0 0 0
 264.4319986 -476798.0293 -25207.94789
 174.9117387 -476792.3695 -25315.54942
 59.19830208 -476788.8268 -25382.71914
 -59.20388002 -476788.8268 -25382.71964
 -174.9169205 -476792.3695 -25315.55003
 -264.4368127 -476798.0292 -25207.94905
 0 0 -0
 0 0 -0
 0 0 -0
 0 0 -0
 0 0 -0
 0 0 -0
 0 0 -0
 0 0 -0
 0 0 0
 0 0 0
 0 0 0
 0 0 0
 0 0 0
 318.4093296 -476931.7593 -22535.90281
 574.6448289 -476919.4145 -22790.63754
 881.4733772 -476903.1831 -23118.13638
 720.4290955 -476874.6536 -23704.78969
 397.6319331 -476866.0705 -23884.38762
 124.8842498 -476862.849 -23951.59579
 -124.890206 -476862.849 -23951.59592
 -397.6374349 -476866.0705 -23884.38824
 -720.4338543 -476874.6535 -23704.79055
 -881.4776146 -476903.1831 -23118.13685
 -574.6486772 -476919.4144 -22790.63854
 -318.4130306 -476931.7592 -22535.90406
 0 0 -0
 0 0 -0
 0 0 -0
 0 0 -0
 0 0 -0
 0 0 0
 0 0 0
 0 0 0
 0 0 0
 1165.22006 -477028.9219 -20345.05509
 989.4105114 -477001.9254 -20977.50128
 911.6827059 -476988.7173 -21279.18387
 935.9621621 -476978.2778 -21510.87495
 789.4508122 -476968.1194 -21740.77219
 491.3667471 -476963.5573 -21849.3672
 163.3287762 -476961.8101 -21892.38075
 -163.335345 -476961.8101 -21892.38095
 -491.3725054 -476963.5573 -21849.36751
 -789.4558894 -476968.1193 -21740.77237
 -935.9665443 -476978.2778 -21510.87567
 -911.6865915 -476988.7173 -21279.18477
 -989.4143699 -477001.9253 -20977.50205
 -1165.224132 -477028.9218 -20345.05548
 0 0 -0
 0 0 -0
 0 0 -0
 0 0 -0
 0 0 0
 0 0 0
 0 0 0
 1492.579886 -477129.5407 -17805.75498
 1505.690191 -477101.1952 -18548.68485
 1311.881357 -477085.8425 -18953.86875
 1140.974421 -477077.3629 -19177.05019
 1003.704173 -477071.7999 -19322.56735
 799.952678 -477067.8388 -19429.57923
 508.1546233 -477065.9483 -19485.7408
 172.8236154 -477065.2664 -19508.28011
 -172.8304302 -477065.2664 -19508.28012
 -508.1607879 -477065.9482 -19485.74101
 -799.9580417 -477067.8388 -19429.57995
 -1003.708604 -477071.7999 -19322.56781
 -1140.978304 -477077.3629 -19177.05057
 -1311.88523 -477085.8425 -18953.86901
 -1505.694113 -477101.1952 -18548.68514
 -1492.58393 -477129.5407 -17805.75467
 0 0 -0
 0 0 -0
 0 0 -0
 0 0 0
 0 0 0
 1181.028807 -477222.5053 -15137.92855
 1511.955351 -477195.6394 -15934.46157
 1527.316642 -477180.1176 -16391.27615
 1393.758743 -477171.5842 -16649.56267
 1213.536117 -477167.0729 -16792.35486
 1017.356224 -477164.6326 -16874.52837
 780.1952418 -477163.3479 -16923.41611
 491.0650492 -477162.8857 -16947.29068
 167.3654533 -477162.797 -16956.07435
 -167.3723799 -477162.797 -16956.07436
 -491.0713438 -477162.8857 -16947.29095
 -780.2007577 -477163.3479 -16923.41627
 -1017.360847 -477164.6326 -16874.52836
 -1213.540337 -477167.0729 -16792.35498
 -1393.762663 -477171.5842 -16649.56289
 -1527.320545 -477180.1176 -16391.27622
 -1511.959314 -477195.6394 -15934.46138
 -1181.032721 -477222.5053 -15137.92837
 0 0 -0
 0 0 -0
 0 0 0
 334.2283822 -477300.5609 -12487.35881
 1002.269524 -477278.355 -13275.48927
 1318.848523 -477264.1747 -13749.16238
 1396.165357 -477255.7994 -14029.39686
 1319.812921 -477251.3784 -14186.30316
 1163.556087 -477249.3546 -14267.82866
 963.8304756 -477248.6255 -14307.05497
 726.1560886 -477248.5436 -14323.81259
 452.4515301 -477248.7365 -14328.64716
 153.7118279 -477248.9158 -14328.99337
 -153.7185384 -477248.9158 -14328.99338
 -452.457809 -477248.7365 -14328.64712
 -726.1617026 -477248.5436 -14323.81227
 -963.8354028 -477248.6255 -14307.05462
 -1163.560526 -477249.3546 -14267.82819
 -1319.817062 -477251.3784 -14186.30298
 -1396.169364 -477255.7994 -14029.39687
 -1318.852553 -477264.1747 -13749.16226
 -1002.273415 -477278.355 -13275.48878
 -334.2320375 -477300.5609 -12487.3579
 0 0 -0
 0 0 0
 583.6714906 -477339.601 -10882.82915
 920.9975988 -477332.656 -11160.58202
 1147.372501 -477326.5302 -11399.05061
 1216.846311 -477322.6134 -11554.79827
 1164.801293 -477320.643 -11641.233
 1034.458284 -477319.976 -11680.82446
 854.7980255 -477320.0286 -11693.20091
 639.3127427 -477320.3891 -11692.24929
 395.9014458 -477320.7859 -11686.82762
 134.1024306 -477321.0335 -11682.64865
 -134.1091794 -477321.0335 -11682.64847
 -395.9078076 -477320.7859 -11686.82733
 -639.3185183 -477320.3891 -11692.2487
 -854.8031695 -477320.0286 -11693.20019
 -1034.463046 -477319.9761 -11680.8237
 -1164.805778 -477320.643 -11641.23236
 -1216.850747 -477322.6134 -11554.79779
 -1147.376757 -477326.5303 -11399.0499
 -921.0014489 -477332.656 -11160.58089
 -583.6751724 -477339.601 -10882.82748
 0 0 -0
 0 0 0
 891.6313621 -477384.6744 -8657.305468
 945.4031225 -477382.0174 -8796.9878
 1010.50703 -477379.4461 -8928.303585
 1021.421673 -477377.8003 -9014.642176
 965.8978088 -477377.0769 -9058.962551
 855.586906 -477377.0038 -9073.889843
 705.1818846 -477377.2864 -9071.959171
 525.3966254 -477377.6909 -9062.860412
 324.2223302 -477378.0521 -9053.262071
 109.610468 -477378.2606 -9047.409618
 -109.6174134 -477378.2606 -9047.409343
 -324.2289963 -477378.0521 -9053.261376
 -525.4026739 -477377.691 -9062.859412
 -705.1873149 -477377.2864 -9071.958089
 -855.591823 -477377.0038 -9073.888577
 -965.9026074 -477377.0769 -9058.961416
 -1021.426306 -477377.8003 -9014.641221
 -1010.511406 -477379.4461 -8928.302338
 -945.4070959 -477382.0174 -8796.985936
 -891.6351395 -477384.6744 -8657.303103
 0 0 -0
 286.6843515 -477438.6739 -4909.353892
 734.8960216 -477426.6549 -5926.251945
 799.3818261 -477422.4673 -6246.597041
 806.6788789 -477420.6971 -6379.540868
 784.3781776 -477419.9115 -6440.822564
 728.5024629 -477419.67 -6465.234357
 640.4544254 -477419.7471 -6468.863063
 525.796731 -477419.9821 -6461.853639
 390.5923861 -477420.2559 -6451.203335
 240.4926324 -477420.4841 -6441.644676
 81.2033273 -477420.612 -6436.143485
 -81.21047233 -477420.612 -6436.143118
 -240.499532 -477420.4841 -6441.6439
 -390.5986884 -477420.2559 -6451.202123
 -525.8022287 -477419.9821 -6461.852351
 -640.4593915 -477419.7471 -6468.861544
 -728.5071206 -477419.67 -6465.232916
 -784.3828264 -477419.9115 -6440.821006
 -806.6834798 -477420.6971 -6379.539256
 -799.3863243 -477422.4673 -6246.594874
 -734.9002076 -477426.6549 -5926.249347
 -286.6885646 -477438.6739 -4909.351119
 187.0104783 -477452.8668 -3255.193372
 407.0929462 -477450.5318 -3563.038284
 498.2176759 -477449.0907 -3740.173346
 512.9272048 -477448.4046 -3824.812182
 494.1613082 -477448.1248 -3862.021927
 454.2873251 -477448.0618 -3874.690184
 396.8759783 -477448.1146 -3874.488268
 324.6549676 -477448.22 -3868.222152
 240.6212435 -477448.3341 -3860.271423
 147.9299497 -477448.4264 -3853.507551
 49.90946693 -477448.4774 -3849.699988
 -49.91663675 -477448.4774 -3849.699566
 -147.9369811 -477448.4264 -3853.506572
 -240.6276819 -477448.3341 -3860.270051
 -324.6607135 -477448.22 -3868.22088
 -396.8810008 -477448.1146 -3874.486535
 -454.2920282 -477448.0618 -3874.688313
 -494.1659729 -477448.1248 -3862.020046
 -512.9320466 -477448.4046 -3824.81022
 -498.2225406 -477449.0907 -3740.171217
 -407.0975772 -477450.5318 -3563.035712
 -187.014996 -477452.8668 -3255.190664
 62.89593537 -477462.6769 -1122.270992
 128.001849 -477462.4909 -1193.622168
 165.6847548 -477462.3442 -1246.479529
 174.5130327 -477462.2676 -1274.326158
 168.493701 -477462.2366 -1286.672624
 154.4010422 -477462.2307 -1290.606608
 134.4817795 -477462.2379 -1290.178337
 109.7909994 -477462.2508 -1287.765182
 81.26963429 -477462.2643 -1284.864816
 49.92310485 -477462.2751 -1282.443957
 16.83519498 -477462.281 -1281.092498
 -16.84235307 -477462.281 -1281.092313
 -49.93007685 -477462.2751 -1282.443474
 -81.27621265 -477462.2643 -1284.863955
 -109.7968676 -477462.2508 -1287.763894
 -134.4870868 -477462.2379 -1290.176736
 -154.4058636 -477462.2308 -1290.604679
 -168.4984886 -477462.2366 -1286.670372
 -174.5178865 -477462.2676 -1274.323791
 -165.6897045 -477462.3442 -1246.477224
 -128.0068001 -477462.4909 -1193.619645
 -62.90061342 -477462.6769 -1122.26868
 -62.89946302 -477462.6769 1122.268771
 -128.0056187 -477462.4909 1193.619723
 -165.6887005 -477462.3442 1246.477223
 -174.5170748 -477462.2676 1274.324003
 -168.4979806 -477462.2366 1286.670684
 -154.4056956 -477462.2308 1290.60503
 -134.4870939 -477462.2379 1290.177128
 -109.7970232 -477462.2508 1287.764128
 -81.27634325 -477462.2643 1284.864059
 -49.93025789 -477462.2751 1282.443438
 -16.84244549 -477462.281 1281.092226
 16.83515846 -477462.281 1281.092322
 49.92312847 -477462.2751 1282.443826
 81.26972324 -477462.2643 1284.864755
 109.7909057 -477462.2508 1287.765276
 134.4815787 -477462.2379 1290.178505
 154.4005695 -477462.2307 1290.606953
 168.4930854 -477462.2366 1286.672958
 174.512309 -477462.2675 1274.326466
 165.6838437 -477462.3442 1246.479874
 128.000836 -477462.4909 1193.622297
 62.89487692 -477462.6769 1122.271157
 -187.0138299 -477452.8668 3255.191145
 -407.09642 -477450.5318 3563.036083
 -498.2215298 -477449.0907 3740.171315
 -512.9312 -477448.4046 3824.810232
 -494.1656857 -477448.1248 3862.020191
 -454.2921192 -477448.0618 3874.688558
 -396.8813575 -477448.1146 3874.486929
 -324.6611023 -477448.22 3868.221139
 -240.6280021 -477448.3341 3860.270532
 -147.9371956 -477448.4264 3853.506933
 -49.91683577 -477448.4774 3849.699664
 49.90932595 -477448.4774 3849.699607
 147.9298673 -477448.4264 3853.506989
 240.6210674 -477448.3341 3860.270984
 324.6546406 -477448.22 3868.222178
 396.8753714 -477448.1146 3874.488414
 454.2865495 -477448.0618 3874.690553
 494.1605977 -477448.1248 3862.022414
 512.9265712 -477448.4046 3824.812754
 498.2169133 -477449.0907 3740.173678
 407.0919206 -477450.5318 3563.038351
 187.0093782 -477452.8668 3255.193277
 -286.6875416 -477438.6739 4909.351936
 -734.8993052 -477426.6549 5926.250034
 -799.3854216 -477422.4673 6246.595245
 -806.6828688 -477420.6971 6379.539312
 -784.3827558 -477419.9115 6440.82109
 -728.5075843 -477419.67 6465.233139
 -640.4601125 -477419.7471 6468.862051
 -525.8029725 -477419.9821 6461.852772
 -390.599229 -477420.2559 6451.202586
 -240.4999475 -477420.4841 6441.644237
 -81.21071815 -477420.612 6436.143213
 81.20311593 -477420.612 6436.143166
 240.4924753 -477420.4841 6441.644207
 390.592049 -477420.2559 6451.202946
 525.7960983 -477419.9821 6461.853545
 640.4536148 -477419.7471 6468.863027
 728.5015389 -477419.67 6465.234701
 784.3773538 -477419.9114 6440.823093
 806.6781867 -477420.6971 6379.541502
 799.3809533 -477422.4673 6246.597332
 734.8948759 -477426.6549 5926.251923
 286.6831652 -477438.6739 4909.353638
 0 0 0
 -891.6345403 -477384.6744 8657.303904
 -945.4066865 -477382.0174 8796.986405
 -1010.511251 -477379.4461 8928.302406
 -1021.426663 -477377.8003 9014.641281
 -965.903354 -477377.0769 9058.961748
 -855.592781 -477377.0038 9073.889263
 -705.1882739 -477377.2864 9071.958726
 -525.4035081 -477377.6909 9062.860102
 -324.2296263 -477378.0521 9053.261982
 -109.6178158 -477378.2606 9047.409641
 109.6102394 -477378.2606 9047.409261
 324.2221181 -477378.0521 9053.261495
 525.3961958 -477377.691 9062.859935
 705.1812905 -477377.2864 9071.958947
 855.5860496 -477377.0038 9073.889698
 965.896846 -477377.0769 9058.962762
 1021.420724 -477377.8003 9014.642723
 1010.506098 -477379.4461 8928.304283
 945.4019621 -477382.0174 8796.988214
 891.6300575 -477384.6744 8657.30561
 0 0 -0
 0 0 0
 -583.6748679 -477339.601 10882.82809
 -921.0014922 -477332.656 11160.58123
 -1147.37713 -477326.5303 11399.04992
 -1216.851633 -477322.6133 11554.79785
 -1164.806938 -477320.643 11641.23276
 -1034.464239 -477319.976 11680.82447
 -854.8042893 -477320.0285 11693.20106
 -639.3194984 -477320.3891 11692.24963
 -395.9085514 -477320.7858 11686.82803
 -134.1095388 -477321.0335 11682.64877
 134.1022591 -477321.0335 11682.64854
 395.9013079 -477320.7859 11686.82721
 639.31253 -477320.3891 11692.24885
 854.7975109 -477320.0286 11693.2007
 1034.457568 -477319.976 11680.82442
 1164.800239 -477320.643 11641.23332
 1216.845164 -477322.6133 11554.79895
 1147.371382 -477326.5302 11399.05142
 920.9963965 -477332.656 11160.58269
 583.6702253 -477339.601 10882.82966
 0 0 -0
 0 0 0
 -334.2319607 -477300.5609 12487.35832
 -1002.273786 -477278.355 13275.48907
 -1318.853536 -477264.1747 13749.16239
 -1396.170913 -477255.7994 14029.39713
 -1319.81874 -477251.3784 14186.30359
 -1163.562018 -477249.3546 14267.82927
 -963.8366705 -477248.6254 14307.05567
 -726.1626354 -477248.5436 14323.81335
 -452.4584108 -477248.7364 14328.64784
 -153.7187349 -477248.9158 14328.99376
 153.7118705 -477248.9158 14328.99339
 452.4516796 -477248.7365 14328.64699
 726.1560745 -477248.5436 14323.81223
 963.8302125 -477248.6255 14307.0548
 1163.555432 -477249.3546 14267.82854
 1319.811826 -477251.3784 14186.30348
 1396.16407 -477255.7994 14029.39751
 1318.847351 -477264.1747 13749.16323
 1002.268456 -477278.355 13275.49009
 334.2272727 -477300.5609 12487.35964
 0 0 -0
 0 0 0
 0 0 0
 -1181.033593 -477222.5053 15137.92882
 -1511.960805 -477195.6393 15934.46193
 -1527.322594 -477180.1176 16391.27679
 -1393.764788 -477171.5842 16649.56361
 -1213.542166 -477167.0728 16792.35601
 -1017.362311 -477164.6325 16874.52952
 -780.2016198 -477163.3478 16923.41732
 -491.0717287 -477162.8857 16947.29173
 -167.3722291 -477162.797 16956.07489
 167.3659591 -477162.797 16956.07435
 491.0655449 -477162.8857 16947.29058
 780.1956093 -477163.3479 16923.41599
 1017.356023 -477164.6326 16874.52829
 1213.535507 -477167.0729 16792.35489
 1393.757668 -477171.5842 16649.56298
 1527.315279 -477180.1176 16391.27654
 1511.954106 -477195.6393 15934.46203
 1181.027793 -477222.5053 15137.92921
 0 0 -0
 0 0 -0
 0 0 0
 0 0 0
 0 0 0
 -1492.585966 -477129.5406 17805.75548
 -1505.696568 -477101.1952 18548.68593
 -1311.887619 -477085.8424 18953.86997
 -1140.980539 -477077.3628 19177.05184
 -1003.710163 -477071.7998 19322.56893
 -799.9588366 -477067.8387 19429.5809
 -508.1608095 -477065.9482 19485.74191
 -172.8298087 -477065.2664 19508.28072
 172.8245379 -477065.2664 19508.28027
 508.1555312 -477065.9482 19485.74089
 799.9533204 -477067.8388 19429.57937
 1003.704178 -477071.7999 19322.56743
 1140.973834 -477077.3629 19177.05011
 1311.88031 -477085.8425 18953.86883
 1505.68894 -477101.1952 18548.68505
 1492.578535 -477129.5407 17805.7551
 0 0 -0
 0 0 -0
 0 0 -0
 0 0 0
 0 0 0
 0 0 0
 0 0 0
 -1165.22675 -477028.9218 20345.05636
 -989.4169222 -477001.9253 20977.50297
 -911.6888325 -476988.7172 21279.1858
 -935.9680949 -476978.2777 21510.87683
 -789.4564483 -476968.1193 21740.7737
 -491.3723112 -476963.5573 21849.36841
 -163.3344116 -476961.8101 21892.38152
 163.330072 -476961.8101 21892.38124
 491.3678617 -476963.5573 21849.36752
 789.4516259 -476968.1194 21740.77222
 935.9623569 -476978.2778 21510.87507
 911.6822625 -476988.7173 21279.18403
 989.4096889 -477001.9254 20977.50147
 1165.218954 -477028.9219 20345.05517
 0 0 -0
 0 0 -0
 0 0 -0
 0 0 -0
 0 0 0
 0 0 0
 0 0 0
 0 0 0
 0 0 0
 -318.4155878 -476931.7592 22535.905
 -574.6508745 -476919.4144 22790.63961
 -881.4789782 -476903.183 23118.13813
 -720.4343336 -476874.6535 23704.7915
 -397.6370646 -476866.0704 23884.38897
 -124.8891805 -476862.849 23951.59664
 124.8855618 -476862.849 23951.59641
 397.6332731 -476866.0705 23884.38835
 720.4300897 -476874.6535 23704.79026
 881.473625 -476903.1831 23118.13651
 574.644549 -476919.4145 22790.63774
 318.4087464 -476931.7593 22535.90305
 0 0 -0
 0 0 -0
 0 0 -0
 0 0 -0
 0 0 -0
 0 0 0
 0 0 0
 0 0 0
 0 0 0
 0 0 0
 0 0 0
 0 0 0
 0 0 0
 -264.4369075 -476798.0292 25207.94966
 -174.916406 -476792.3695 25315.55067
 -59.20287297 -476788.8267 25382.72017
 59.19968794 -476788.8267 25382.72015
 174.9130803 -476792.3695 25315.5504
 264.4332893 -476798.0292 25207.94896
 0 0 -0
 0 0 -0
 0 0 -0
 0 0 -0
 0 0 -0
 0 0 -0
 0 0 -0
 0 0 -0
 0 0 0
 0 0 0
 0 0 0
 0 0 0
 0 0 0
 0 0 0
 0 0 0
 0 0 0
 289.1365 -476897.2001 -23256.14416
 188.1165199 -476891.4943 -23373.88688
 63.13754847 -476888.0091 -23445.55521
 -63.14291142 -476888.0091 -23445.55567
 -188.1217011 -476891.4942 -23373.88806
 -289.1414949 -476897.2 -23256.14549
 0 0 -0
 0 0 -0
 0 0 -0
 0 0 -0
 0 0 -0
 0 0 -0
 0 0 -0
 0 0 -0
 0 0 0
 0 0 0
 0 0 0
 0 0 0
 0 0 0
 322.7130187 -477012.2875 -20761.61681
 614.4398271 -477000.0791 -21033.74207
 969.3544503 -476982.9691 -21405.11317
 799.2518861 -476954.919 -22028.11161
 437.2813786 -476945.3191 -22245.05948
 136.3130239 -476941.7474 -22325.37425
 -136.3188113 -476941.7473 -22325.37461
 -437.286681 -476945.3191 -22245.06023
 -799.2567417 -476954.919 -22028.11264
 -969.3584053 -476982.969 -21405.11401
 -614.443286 -477000.079 -21033.74306
 -322.7163552 -477012.2874 -20761.618
 0 0 -0
 0 0 -0
 0 0 -0
 0 0 -0
 0 0 -0
 0 0 0
 0 0 0
 0 0 0
 0 0 0
 1256.171679 -477092.2229 -18796.38689
 1074.508669 -477065.9089 -19463.69196
 987.9691693 -477051.7289 -19812.70307
 1019.137145 -477040.3654 -20082.88803
 862.307685 -477029.5145 -20346.25289
 534.9868986 -477024.251 -20480.45598
 177.2336489 -477022.1837 -20534.75368
 -177.23977 -477022.1837 -20534.75377
 -534.9927682 -477024.2509 -20480.45656
 -862.3126102 -477029.5145 -20346.25368
 -1019.141246 -477040.3654 -20082.8887
 -987.9727824 -477051.7288 -19812.7041
 -1074.512222 -477065.9088 -19463.6928
 -1256.17551 -477092.2229 -18796.3873
 0 0 -0
 0 0 -0
 0 0 -0
 0 0 -0
 0 0 0
 0 0 0
 0 0 0
 1609.76171 -477178.4665 -16431.40552
 1638.332851 -477150.2903 -17227.52534
 1423.818419 -477133.8008 -17696.89814
 1231.629026 -477124.3488 -17964.13532
 1081.128725 -477118.0834 -18139.37484
 861.3057223 -477113.6135 -18268.25737
 546.3930691 -477111.3374 -18339.69614
 185.5895308 -477110.4619 -18369.64857
 -185.5961271 -477110.4619 -18369.64876
 -546.3990916 -477111.3374 -18339.69669
 -861.3108426 -477113.6135 -18268.25797
 -1081.133002 -477118.0834 -18139.37559
 -1231.633101 -477124.3488 -17964.1359
 -1423.822196 -477133.8007 -17696.89858
 -1638.336665 -477150.2903 -17227.52553
 -1609.76526 -477178.4665 -16431.40547
 0 0 -0
 0 0 -0
 0 0 -0
 0 0 0
 0 0 0
 1270.493374 -477258.816 -13938.4248
 1644.099751 -477232.2742 -14782.58176
 1656.794687 -477215.709 -15306.64507
 1503.038797 -477206.2344 -15614.80076
 1301.221812 -477201.0504 -15790.36326
 1086.892602 -477198.1445 -15894.05026
 831.9440134 -477196.5364 -15957.59373
 522.9990937 -477195.855 -15991.052
 178.1214084 -477195.6556 -16004.5582
 -178.1278168 -477195.6555 -16004.55843
 -523.0051373 -477195.855 -15991.05222
 -831.9491558 -477196.5364 -15957.59425
 -1086.89732 -477198.1445 -15894.05042
 -1301.22595 -477201.0504 -15790.36346
 -1503.042734 -477206.2344 -15614.80101
 -1656.79849 -477215.709 -15306.64548
 -1644.103203 -477232.2742 -14782.58186
 -1270.496466 -477258.816 -13938.42469
 0 0 -0
 0 0 -0
 0 0 0
 341.0344284 -477325.0099 -11514.76745
 1087.790403 -477304.1283 -12306.7904
 1430.752598 -477289.4493 -12829.87851
 1505.393811 -477280.3623 -13155.25836
 1414.064565 -477275.3708 -13345.1185
 1240.117934 -477272.9364 -13449.07507
 1023.456772 -477271.9175 -13503.3566
 769.3077085 -477271.6346 -13530.19971
 478.6930476 -477271.6964 -13541.41558
 162.5216235 -477271.8105 -13544.88001
 -162.5278427 -477271.8105 -13544.87994
 -478.6988941 -477271.6964 -13541.4156
 -769.3130099 -477271.6346 -13530.19974
 -1023.461584 -477271.9175 -13503.35623
 -1240.122349 -477272.9364 -13449.07467
 -1414.068779 -477275.3708 -13345.11821
 -1505.397824 -477280.3623 -13155.25836
 -1430.756097 -477289.4493 -12829.87838
 -1087.793661 -477304.1283 -12306.79006
 -341.0377308 -477325.01 -11514.76662
 0 0 -0
 0 0 0
 628.6913576 -477356.5592 -10108.97551
 999.0891663 -477349.4698 -10409.45755
 1238.461915 -477342.91 -10681.0019
 1304.573617 -477338.5737 -10865.33
 1241.347443 -477336.2779 -10973.06576
 1097.251696 -477335.3718 -11027.69914
 903.5729712 -477335.2513 -11050.4608
 674.2383635 -477335.4902 -11056.51313
 416.9490502 -477335.8082 -11055.48136
 141.1393393 -477336.0169 -11053.4325
 -141.1454166 -477336.0169 -11053.43252
 -416.9548991 -477335.8082 -11055.48099
 -674.2437735 -477335.4902 -11056.51268
 -903.5779852 -477335.2513 -11050.46019
 -1097.256286 -477335.3718 -11027.69842
 -1241.351896 -477336.2779 -10973.06496
 -1304.577706 -477338.5737 -10865.32951
 -1238.465576 -477342.91 -10681.00142
 -999.0926851 -477349.4698 -10409.45652
 -628.6947984 -477356.5593 -10108.97405
 0 0 -0
 0 0 0
 981.5907957 -477395.3381 -8037.345188
 1029.619405 -477392.101 -8221.499392
 1088.309523 -477389.1484 -8383.783348
 1091.044092 -477387.2465 -8491.039709
 1025.526004 -477386.3417 -8549.876858
 904.3575853 -477386.1363 -8574.979602
 742.9726419 -477386.3219 -8580.146946
 552.3263228 -477386.6574 -8575.871752
 340.3727899 -477386.9736 -8569.29692
 114.99545 -477387.1599 -8564.908458
 -115.0017324 -477387.1599 -8564.908069
 -340.3787952 -477386.9736 -8569.296251
 -552.3319367 -477386.6574 -8575.871046
 -742.977706 -477386.3219 -8580.1461
 -904.3624113 -477386.1363 -8574.978316
 -1025.530458 -477386.3417 -8549.875705
 -1091.048278 -477387.2466 -8491.038801
 -1088.31346 -477389.1485 -8383.782199
 -1029.623271 -477392.1011 -8221.497829
 -981.5944299 -477395.3381 -8037.34313
 0 0 -0
 307.1205996 -477443.2324 -4442.607713
 812.4963033 -477431.9169 -5475.019946
 872.190216 -477427.5165 -5837.553219
 868.1512978 -477425.5622 -5995.846111
 836.1938116 -477424.6531 -6072.286805
 771.6745578 -477424.3252 -6106.518541
 675.3848999 -477424.3388 -6116.854842
 552.7282175 -477424.5266 -6114.506989
 409.7136089 -477424.7664 -6107.032181
 251.9263951 -477424.9725 -6099.466916
 85.00916771 -477425.0893 -6094.930882
 -85.01579719 -477425.0893 -6094.930607
 -251.9327394 -477424.9725 -6099.466059
 -409.7194671 -477424.7664 -6107.031059
 -552.7336435 -477424.5266 -6114.505806
 -675.3898023 -477424.3388 -6116.853535
 -771.6792517 -477424.3252 -6106.517031
 -836.1981321 -477424.6531 -6072.285423
 -868.1554268 -477425.5622 -5995.844499
 -872.1940575 -477427.5166 -5837.551587
 -812.5002404 -477431.9169 -5475.017909
 -307.1246361 -477443.2325 -4442.605344
 199.914464 -477454.6046 -2988.616808
 446.3459733 -477452.3585 -3304.154944
 541.7194975 -477450.8722 -3498.917934
 551.1868928 -477450.1325 -3597.009364
 526.1342928 -477449.8127 -3642.912799
 480.5517748 -477449.7205 -3661.253089
 417.9336887 -477449.7514 -3664.898677
 340.8096525 -477449.8403 -3661.297068
 252.056244 -477449.9425 -3655.161699
 154.7541242 -477450.0269 -3649.53852
 52.17861393 -477450.074 -3646.283542
 -52.18553485 -477450.074 -3646.283239
 -154.7607169 -477450.0269 -3649.537618
 -252.0624725 -477449.9425 -3655.160599
 -340.8151813 -477449.8404 -3661.295829
 -417.9387932 -477449.7514 -3664.897154
 -480.5564088 -477449.7205 -3661.251361
 -526.1388109 -477449.8127 -3642.910933
 -551.1910532 -477450.1325 -3597.007632
 -541.7236267 -477450.8723 -3498.916274
 -446.3500939 -477452.3585 -3304.152996
 -199.9185082 -477454.6047 -2988.614758
 67.1143649 -477462.8696 -1036.797649
 139.429255 -477462.6895 -1109.930285
 179.5629621 -477462.5398 -1167.125039
 187.2812857 -477462.4581 -1198.881848
 179.2620575 -477462.4231 -1213.973195
 163.220148 -477462.4141 -1219.74723
 141.5235274 -477462.4189 -1220.573161
 115.1779684 -477462.4299 -1219.028656
 85.07626595 -477462.4421 -1216.720181
 52.19234279 -477462.4521 -1214.671393
 17.58940107 -477462.4576 -1213.500212
 -17.59641007 -477462.4576 -1213.50006
 -52.19924033 -477462.4521 -1214.670915
 -85.08265851 -477462.4421 -1216.719388
 -115.1837955 -477462.4299 -1219.02756
 -141.5286871 -477462.4189 -1220.571809
 -163.2250125 -477462.4141 -1219.745608
 -179.2664962 -477462.4231 -1213.971215
 -187.2857731 -477462.4581 -1198.879956
 -179.567257 -477462.5398 -1167.122983
 -139.4333641 -477462.6896 -1109.928234
 -67.1184307 -477462.8696 -1036.795743
 -67.11750714 -477462.8696 1036.79604
 -139.4324989 -477462.6896 1109.928668
 -179.5664808 -477462.5398 1167.12326
 -187.2851392 -477462.4581 1198.880232
 -179.2661283 -477462.4231 1213.971538
 -163.2248606 -477462.4141 1219.745943
 -141.5288682 -477462.4189 1220.572157
 -115.1839716 -477462.4299 1219.027731
 -85.08294112 -477462.4421 1216.719466
 -52.19933283 -477462.4521 1214.670895
 -17.5964782 -477462.4576 1213.499985
 17.58944861 -477462.4576 1213.5
 52.19245943 -477462.4521 1214.671207
 85.07625317 -477462.4421 1216.720063
 115.1779169 -477462.4299 1219.028695
 141.523294 -477462.4189 1220.57325
 163.2198348 -477462.4141 1219.747459
 179.2614391 -477462.4231 1213.973539
 187.2806438 -477462.4581 1198.882169
 179.5620879 -477462.5398 1167.125277
 139.4282772 -477462.6895 1109.93037
 67.11338715 -477462.8696 1036.797812
 -199.917548 -477454.6047 2988.615164
 -446.3492793 -477452.3585 3304.153325
 -541.7229362 -477450.8723 3498.91643
 -551.190609 -477450.1325 3597.00784
 -526.1385218 -477449.8127 3642.911292
 -480.5564947 -477449.7205 3661.251809
 -417.9391435 -477449.7514 3664.897564
 -340.815709 -477449.8404 3661.296187
 -252.0628758 -477449.9425 3655.160963
 -154.7610693 -477450.0269 3649.538005
 -52.18566563 -477450.074 3646.283324
 52.17854889 -477450.074 3646.283204
 154.7539948 -477450.0269 3649.537982
 252.0560421 -477449.9425 3655.161326
 340.8092822 -477449.8403 3661.296928
 417.9332214 -477449.7514 3664.898648
 480.5511977 -477449.7205 3661.253222
 526.1337177 -477449.8127 3642.913064
 551.186068 -477450.1325 3597.009828
 541.7186257 -477450.8722 3498.918413
 446.3449988 -477452.3585 3304.155131
 199.9134472 -477454.6046 2988.616917
 -307.1236895 -477443.2325 4442.606038
 -812.4994516 -477431.9169 5475.018446
 -872.1935149 -477427.5166 5837.551961
 -868.1551778 -477425.5622 5995.844817
 -836.1981498 -477424.6531 6072.285763
 -771.6796258 -477424.3252 6106.517564
 -675.3904669 -477424.3388 6116.854045
 -552.734394 -477424.5266 6114.506301
 -409.7202333 -477424.7664 6107.031602
 -251.9333497 -477424.9725 6099.466505
 -85.01625414 -477425.0893 6094.930754
 85.00884959 -477425.0893 6094.93054
 251.9260122 -477424.9725 6099.466395
 409.7131384 -477424.7664 6107.031689
 552.7277176 -477424.5266 6114.506736
 675.384247 -477424.3388 6116.854724
 771.6739176 -477424.3252 6106.518516
 836.1930796 -477424.6531 6072.287139
 868.1504552 -477425.5622 5995.846472
 872.1893013 -477427.5165 5837.553647
 812.4952676 -477431.9169 5475.020071
 307.1195572 -477443.2324 4442.607586
 0 0 0
 -981.5937866 -477395.3381 8037.343751
 -1029.622804 -477392.101 8221.498209
 -1088.31345 -477389.1485 8383.782491
 -1091.048698 -477387.2465 8491.039024
 -1025.531132 -477386.3417 8549.876256
 -904.3633547 -477386.1363 8574.979008
 -742.9787579 -477386.3219 8580.146756
 -552.3329483 -477386.6574 8575.871728
 -340.3796564 -477386.9736 8569.296889
 -115.0024269 -477387.1599 8564.908381
 114.9949247 -477387.1599 8564.908112
 340.3723116 -477386.9736 8569.296331
 552.3259332 -477386.6574 8575.871329
 742.9720054 -477386.3219 8580.146656
 904.3568549 -477386.1363 8574.979368
 1025.525149 -477386.3417 8549.87687
 1091.043271 -477387.2465 8491.040238
 1088.308584 -477389.1484 8383.783877
 1029.618496 -477392.101 8221.499898
 981.5896845 -477395.3381 8037.345509
 0 0 -0
 0 0 0
 -628.6944665 -477356.5593 10108.97456
 -999.0926802 -477349.4698 10409.45691
 -1238.466114 -477342.91 10681.00153
 -1304.578536 -477338.5737 10865.32972
 -1241.353012 -477336.2779 10973.06557
 -1097.257569 -477335.3718 11027.69929
 -903.5791821 -477335.2513 11050.46106
 -674.2448315 -477335.4902 11056.51347
 -416.9558375 -477335.8082 11055.48167
 -141.1461766 -477336.0169 11053.43277
 141.1387869 -477336.0169 11053.43237
 416.9487476 -477335.8082 11055.48097
 674.2379747 -477335.4902 11056.51275
 903.5725754 -477335.2513 11050.46048
 1097.250943 -477335.3718 11027.69881
 1241.346551 -477336.2779 10973.06578
 1304.572605 -477338.5737 10865.33051
 1238.460831 -477342.91 10681.00277
 999.0881123 -477349.4698 10409.45823
 628.6902446 -477356.5592 10108.97612
 0 0 -0
 0 0 0
 -341.0377593 -477325.01 11514.76704
 -1087.794286 -477304.1283 12306.79033
 -1430.757271 -477289.4493 12829.87868
 -1505.399262 -477280.3623 13155.25866
 -1414.070416 -477275.3707 13345.11899
 -1240.123915 -477272.9363 13449.07565
 -1023.462839 -477271.9174 13503.35719
 -769.314055 -477271.6345 13530.2005
 -478.6996308 -477271.6964 13541.41613
 -162.5283247 -477271.8105 13544.88024
 162.5214133 -477271.8105 13544.88002
 478.6928968 -477271.6964 13541.41546
 769.3077042 -477271.6346 13530.19963
 1023.456398 -477271.9175 13503.35636
 1240.117231 -477272.9364 13449.07481
 1414.063599 -477275.3708 13345.11837
 1505.392705 -477280.3623 13155.25884
 1430.751307 -477289.4493 12829.87915
 1087.789205 -477304.1283 12306.79128
 341.0333246 -477325.0099 11514.76823
 0 0 -0
 0 0 0
 0 0 0
 -1270.497744 -477258.816 13938.42535
 -1644.105041 -477232.2741 14782.58244
 -1656.800533 -477215.709 15306.6461
 -1503.044855 -477206.2344 15614.80197
 -1301.227872 -477201.0504 15790.36459
 -1086.89865 -477198.1445 15894.05152
 -831.9501808 -477196.5364 15957.59508
 -523.0054967 -477195.855 15991.05294
 -178.1278389 -477195.6555 16004.55885
 178.1217295 -477195.6556 16004.55826
 522.9996586 -477195.855 15991.05199
 831.9441803 -477196.5364 15957.59373
 1086.892611 -477198.1445 15894.05008
 1301.22125 -477201.0505 15790.36302
 1503.037842 -477206.2344 15614.80062
 1656.793533 -477215.709 15306.64528
 1644.098364 -477232.2742 14782.58211