# OOMMF OVF 2.0
#
# Segment count: 1
#
# Begin: Segment
# Begin: Header
#
# Title: Oxs_MinDriver::Magnetization
# Desc: Oxs vector field output
# Desc:  MIF source file: F:/Bogdan/UNIC/2022/Master_degree/Samples/Cylinder11_7.mif
# Desc:  Iteration: 1534, State id: 7131
# Desc:  Stage: 2, Stage iteration: 410
# Desc:  Stage simulation time: 0 s
# Desc:  Total simulation time: -2 s
# meshunit: m
# meshtype: rectangular
# xbase: -2.0999999999999999e-08
# ybase: -2.0999999999999999e-08
# zbase: -8.9999999999999995e-09
# xnodes: 22
# ynodes: 22
# znodes: 10
# xstepsize: 2.0000000000000001e-09
# ystepsize: 2.0000000000000001e-09
# zstepsize: 2.0000000000000001e-09
# xmin: -2.1999999999999998e-08
# ymin: -2.1999999999999998e-08
# zmin: -1e-08
# xmax: 2.2000000000000005e-08
# ymax: 2.2000000000000005e-08
# zmax: 1e-08
# valuedim: 3
# valuelabels: Magnetization_x Magnetization_y Magnetization_z
# valueunits: A/m A/m A/m
#
# End: Header
#
# Begin: Data Text
 0 0 0
 0 0 0
 0 0 0
 0 0 0
 0 0 0
 0 0 0
 0 0 0
 0 0 0
 11673.38408 56874.68698 473920.7459
 7675.086248 56945.70564 473993.8301
 2634.006429 56995.8359 474042.6226
 -2634.008963 56995.83781 474042.6223
 -7675.088795 56945.71125 473993.8294
 -11673.38663 56874.69519 473920.7448
 0 0 -0
 0 0 -0
 0 0 -0
 0 0 -0
 0 0 -0
 0 0 -0
 0 0 -0
 0 0 -0
 0 0 0
 0 0 0
 0 0 0
 0 0 0
 0 0 0
 28548.52536 51125.05603 473859.77
 24805.25517 51445.76041 474035.7627
 19749.49449 51928.64977 474220.6703
 13646.23108 53208.56123 474293.6861
 8229.920266 53486.57487 474387.3165
 2757.527265 53551.95091 474443.3116
 -2757.529851 53551.9532 474443.3113
 -8229.922843 53486.58124 474387.3157
 -13646.23372 53208.57188 474293.6848
 -19749.49719 51928.66535 474220.6684
 -24805.258 51445.77977 474035.7605
 -28548.52824 51125.07776 473859.7675
 0 0 -0
 0 0 -0
 0 0 -0
 0 0 -0
 0 0 -0
 0 0 0
 0 0 0
 0 0 0
 0 0 0
 34508.486 46072.86131 473981.3574
 30171.89334 47374.26633 474148.9292
 25294.09708 47821.23585 474389.3015
 19913.40316 48113.3946 474616.0858
 14163.26842 48488.95102 474784.2613
 8491.942269 48615.55006 474906.6082
 2831.576917 48642.31541 474971.3451
 -2831.579537 48642.31772 474971.3448
 -8491.944931 48615.55739 474906.6074
 -14163.27106 48488.96291 474784.26
 -19913.40592 48113.41115 474616.084
 -25294.09984 47821.25641 474389.2993
 -30171.89613 47374.28996 474148.9266
 -34508.48875 46072.8876 473981.3546
 0 0 -0
 0 0 -0
 0 0 -0
 0 0 -0
 0 0 0
 0 0 0
 0 0 0
 40406.18009 40406.18603 474032.2268
 36075.83188 41883.02367 474253.3268
 31019.03982 42579.21964 474548.9443
 25631.33718 42848.21707 474846.2237
 20028.97429 42966.33383 475104.8365
 14298.23565 43052.42739 475304.0293
 8570.511961 43068.99935 475440.3001
 2855.361888 43060.61007 475509.7287
 -2855.364532 43060.6128 475509.7284
 -8570.514582 43069.00719 475440.2993
 -14298.23836 43052.44039 475304.028
 -20028.97695 42966.3516 475104.8348
 -25631.33993 42848.23899 474846.2216
 -31019.04251 42579.2452 474548.9418
 -36075.83454 41883.05206 474253.3241
 -40406.18271 40406.21693 474032.2239
 0 0 -0
 0 0 -0
 0 0 -0
 0 0 0
 0 0 0
 46072.85101 34508.49184 473981.358
 41883.01474 36075.83862 474253.3271
 36861.06959 36861.07891 474609.7278
 31414.26233 37204.61726 474974.5592
 25774.69643 37305.47616 475306.0464
 20049.18748 37302.84819 475582.1684
 14297.34287 37270.09253 475792.3891
 8563.71014 37226.171 475933.5525
 2851.742639 37195.62628 476004.4372
 -2851.745202 37195.6291 476004.437
 -8563.712747 37226.17951 475933.5517
 -14297.34543 37270.10641 475792.3879
 -20049.19013 37302.86709 475582.1668
 -25774.69902 37305.4996 475306.0444
 -31414.26492 37204.64443 474974.5569
 -36861.07216 36861.10933 474609.7252
 -41883.01725 36075.87148 474253.3244
 -46072.85354 34508.52677 473981.3552
 0 0 -0
 0 0 -0
 0 0 0
 51125.04502 28548.53098 473859.7709
 47374.25517 30171.89993 474148.9299
 42579.20901 31019.04738 474548.9447
 37204.60512 31414.27255 474974.5595
 31545.71741 31545.7302 475375.2264
 25778.2269 31533.27499 475723.6665
 19993.69265 31459.44328 476006.751
 14235.3657 31373.9872 476219.3807
 8518.750965 31301.83589 476360.6798
 2835.473798 31260.62015 476431.1126
 -2835.476222 31260.62318 476431.1123
 -8518.753367 31301.84487 476360.6792
 -14235.36816 31374.00191 476219.3797
 -19993.69506 31459.46328 476006.7496
 -25778.22935 31533.29969 475723.6647
 -31545.71985 31545.759 475375.2244
 -37204.60748 31414.30458 474974.5572
 -42579.21143 31019.08209 474548.9423
 -47374.25754 30171.93646 474148.9273
 -51125.0475 28548.56888 473859.7683
 0 0 -0
 0 0 0
 51445.74889 24805.2615 474035.7637
 47821.22323 25294.10414 474389.3024
 42848.20327 25631.34585 474846.2245
 37305.46159 25774.70764 475306.047
 31533.25884 25778.24125 475723.6668
 25702.35625 25702.37374 476078.4055
 19896.09249 25596.06985 476362.1081
 14147.53427 25492.83525 476573.0101
 8459.401604 25413.10671 476712.1604
 2814.616874 25369.86207 476781.207
 -2814.61903 25369.86525 476781.2068
 -8459.403787 25413.11614 476712.1598
 -14147.53643 25492.85063 476573.0092
 -19896.09467 25596.09081 476362.1069
 -25702.35844 25702.39961 476078.404
 -31533.26096 25778.27133 475723.665
 -37305.46379 25774.74124 475306.045
 -42848.20535 25631.38201 474846.2223
 -47821.2254 25294.14219 474389.3001
 -51445.75103 24805.3005 474035.7614
 0 0 -0
 0 0 0
 51928.63644 19749.50089 474220.6714
 48113.37936 19913.41083 474616.0871
 42966.31724 20028.98356 475104.8376
 37302.82982 20049.20004 475582.1693
 31459.42329 19993.70786 476006.7517
 25596.04862 19896.11077 476362.1085
 19786.655 19786.67726 476643.3121
 14056.13007 19687.76607 476850.8031
 8399.571031 19614.16622 476987.005
 2793.866793 19575.08658 477054.3801
 -2793.868606 19575.08987 477054.38
 -8399.572831 19614.17599 476987.0046
 -14056.1319 19687.78209 476850.8023
 -19786.65682 19786.69895 476643.3111
 -25596.0504 19896.13763 476362.1072
 -31459.42515 19993.73909 476006.7502
 -37302.83153 20049.23481 475582.1677
 -42966.31905 20029.02107 475104.8358
 -48113.38101 19913.45016 474616.0852
 -51928.63809 19749.54119 474220.6696
 0 0 -0
 56874.67038 11673.38776 473920.7478
 53208.54443 13646.2364 474293.6878
 48488.93251 14163.27564 474784.2629
 43052.40699 14298.24582 475304.0308
 37270.07022 14297.35586 475792.3904
 31373.96343 14235.38203 476219.3818
 25492.81043 14147.55339 476573.0108
 19687.74092 14056.15193 476850.8034
 13976.28391 13976.3088 477054.7113
 8348.188033 13918.00253 477188.0848
 2776.177488 13887.36904 477253.921
 -2776.178852 13887.37244 477253.9209
 -8348.189412 13918.01259 477188.0845
 -13976.28528 13976.32521 477054.7108
 -19687.74228 14056.17428 476850.8027
 -25492.81183 14147.58094 476573.0099
 -31373.96473 14235.41413 476219.3808
 -37270.07162 14297.39158 475792.3892
 -43052.40822 14298.28435 475304.0296
 -48488.93377 14163.31602 474784.2616
 -53208.54551 13646.27793 474293.6865
 -56874.67136 11673.42992 473920.7466
 56945.68583 7675.090612 473993.8324
 53486.55402 8229.925793 474387.3187
 48615.5275 8491.94963 474906.6104
 43068.97543 8570.521812 475440.302
 37226.14561 8563.723956 475933.5542
 31301.8089 8518.768429 476360.6812
 25413.07871 8459.421463 476712.1615
 19614.13766 8399.592943 476987.0058
 13917.97483 8348.211937 477188.0852
 8311.031923 8311.059098 477319.3107
 2763.441881 8291.64792 477383.9998
 -2763.442745 8291.651336 477383.9997
 -8311.032776 8311.069362 477319.3105
 -13917.97569 8348.228662 477188.0849
 -19614.13853 8399.615666 476987.0054
 -25413.07954 8459.449579 476712.1609
 -31301.80978 8518.801055 476360.6806
 -37226.1464 8563.7604 475933.5535
 -43068.97628 8570.560952 475440.3013
 -48615.52823 8491.990829 474906.6096
 -53486.55475 8229.967998 474387.3179
 -56945.68651 7675.133348 473993.8316
 56995.81215 2634.011817 474042.6254
 53551.9265 2757.533314 474443.3143
 48642.29014 2831.585251 474971.3476
 43060.58334 2855.373014 475509.731
 37195.59818 2851.757152 476004.4393
 31260.59001 2835.491744 476431.1144
 25369.83062 2814.637014 476781.2085
 19575.05525 2793.88866 477054.3813
 13887.33768 2776.20133 477253.9218
 8291.615957 2763.469226 477384.0002
 2756.802962 2756.834103 477448.0822
 -2756.803268 2756.837628 477448.0822
 -8291.616269 2763.479523 477384.0001
 -13887.33797 2776.218246 477253.9217
 -19575.05556 2793.911599 477054.3811
 -25369.83092 2814.665336 476781.2083
 -31260.59031 2835.524773 476431.1142
 -37195.59849 2851.793786 476004.4391
 -43060.58363 2855.412676 475509.7308
 -48642.29043 2831.626679 474971.3473
 -53551.92677 2757.576007 474443.314
 -56995.81242 2634.054867 474042.6251
 56995.81131 -2634.002465 474042.6255
 53551.92606 -2757.52257 474443.3144
 48642.28993 -2831.570505 474971.3477
 43060.58346 -2855.35283 475509.7311
 37195.59793 -2851.730536 476004.4395
 31260.58992 -2835.458511 476431.1146
 25369.83079 -2814.599324 476781.2087
 19575.05548 -2793.846572 477054.3815
 13887.33773 -2776.154313 477253.9221
 8291.61616 -2763.415519 477384.0005
 2756.803237 -2756.773073 477448.0826
 -2756.802976 -2756.769632 477448.0826
 -8291.615893 -2763.405131 477384.0006
 -13887.33747 -2776.137464 477253.9222
 -19575.0552 -2793.823598 477054.3817
 -25369.83056 -2814.570953 476781.2089
 -31260.58964 -2835.425591 476431.1148
 -37195.59773 -2851.693719 476004.4397
 -43060.58321 -2855.31335 475509.7314
 -48642.28975 -2831.52891 474971.348
 -53551.92585 -2757.479971 474443.3147
 -56995.81113 -2633.959376 474042.6258
 56945.68294 -7675.081234 473993.8329
 53486.55213 -8229.914992 474387.3191
 48615.52664 -8491.935381 474906.6107
 43068.97477 -8570.503277 475440.3024
 37226.14494 -8563.699144 475933.5547
 31301.80835 -8518.736678 476360.6819
 25413.07934 -8459.384889 476712.1621
 19614.13889 -8399.550855 476987.0065
 13917.97542 -8348.164898 477188.086
 8311.032152 -8311.006089 477319.3116
 2763.442487 -8291.586473 477384.0009
 -2763.441671 -8291.583002 477384.0009
 -8311.031339 -8310.995874 477319.3118
 -13917.97459 -8348.1481 477188.0863
 -19614.1381 -8399.528143 476987.007
 -25413.07849 -8459.35677 476712.1627
 -31301.80761 -8518.703954 476360.6825
 -37226.14411 -8563.662785 475933.5554
 -43068.9741 -8570.463993 475440.3032
 -48615.52591 -8491.894254 474906.6115
 -53486.55153 -8229.872708 474387.3199
 -56945.68232 -7675.038502 473993.8337
 56874.66566 -11673.37883 473920.7486
 53208.54108 -13646.22571 474293.6885
 48488.93024 -14163.26189 474784.2636
 43052.40535 -14298.22719 475304.0315
 37270.06877 -14297.33223 475792.3912
 31373.96257 -14235.35266 476219.3827
 25492.81099 -14147.51814 476573.0118
 19687.74263 -14056.11094 476850.8046
 13976.28551 -13976.26177 477054.7126
 8348.188767 -13917.94953 477188.0863
 2776.178342 -13887.30895 477253.9227
 -2776.177018 -13887.30555 477253.9229
 -8348.187438 -13917.93945 477188.0866
 -13976.28419 -13976.24537 477054.7132
 -19687.74128 -14056.08853 476850.8053
 -25492.80971 -14147.49056 476573.0127
 -31373.96122 -14235.32053 476219.3838
 -37270.06757 -14297.29645 475792.3924
 -43052.40407 -14298.18863 475304.0328
 -48488.92915 -14163.22147 474784.2649
 -53208.54002 -13646.18415 474293.6898
 -56874.66477 -11673.33664 473920.7497
 0 0 0
 51928.63301 -19749.48988 474220.6723
 48113.37635 -19913.39709 474616.0879
 42966.3146 -20028.96652 475104.8385
 37302.82789 -20049.17709 475582.1704
 31459.42231 -19993.6802 476006.7529
 25596.04855 -19896.07769 476362.1098
 19786.65601 -19786.63706 476643.3137
 14056.13164 -19687.72101 476850.8049
 8399.572793 -19614.11461 476987.0071
 2793.868397 -19575.02865 477054.3825
 -2793.866636 -19575.0254 477054.3826
 -8399.571028 -19614.1048 476987.0076
 -14056.12987 -19687.70495 476850.8056
 -19786.65426 -19786.61537 476643.3147
 -25596.04677 -19896.05074 476362.1111
 -31459.4206 -19993.64898 476006.7543
 -37302.82613 -20049.14221 475582.172
 -42966.31298 -20028.92901 475104.8403
 -48113.37468 -19913.35765 474616.0898
 -51928.63147 -19749.44955 474220.6741
 0 0 -0
 0 0 0
 51445.74415 -24805.25134 474035.7647
 47821.21933 -25294.0924 474389.3034
 42848.2 -25631.33034 474846.2256
 37305.45889 -25774.687 475306.0483
 31533.25717 -25778.21575 475723.6683
 25702.35554 -25702.34298 476078.4072
 19896.09232 -25596.03277 476362.1101
 14147.53524 -25492.79236 476573.0123
 8459.403664 -25413.05804 476712.1629
 2814.61917 -25369.80671 476781.2099
 -2814.617057 -25369.80344 476781.2101
 -8459.401553 -25413.04864 476712.1634
 -14147.53312 -25492.77695 476573.0132
 -19896.0902 -25596.01172 476362.1113
 -25702.35342 -25702.31712 476078.4087
 -31533.25507 -25778.18552 475723.6701
 -37305.45684 -25774.65343 475306.0503
 -42848.19791 -25631.29401 474846.2277
 -47821.2173 -25294.05437 474389.3056
 -51445.74206 -24805.21224 474035.767
 0 0 -0
 0 0 0
 51125.03857 -28548.52261 473859.7721
 47374.2493 -30171.8893 474148.9311
 42579.20408 -31019.03408 474548.9461
 37204.60119 -31414.25388 474974.561
 31545.71459 -31545.70726 475375.2282
 25778.22527 -31533.24665 475723.6685
 19993.6919 -31459.40878 476006.7533
 14235.36615 -31373.94616 476219.3834
 8518.752623 -31301.78955 476360.6828
 2835.476144 -31260.56819 476431.116
 -2835.473787 -31260.56528 476431.1162
 -8518.750252 -31301.78048 476360.6834
 -14235.36378 -31373.93141 476219.3845
 -19993.68951 -31459.3888 476006.7547
 -25778.22291 -31533.22181 475723.6703
 -31545.71222 -31545.67848 475375.2302
 -37204.59885 -31414.22168 474974.5633
 -42579.20178 -31018.99939 474548.9485
 -47374.24696 -30171.85263 474148.9337
 -51125.03618 -28548.48466 473859.7746
 0 0 -0
 0 0 0
 0 0 0
 46072.84422 -34508.48193 473981.3593
 41883.00768 -36075.82586 474253.3287
 36861.06402 -36861.06208 474609.7295
 31414.25821 -37204.59566 474974.5611
 25774.69365 -37305.45034 475306.0486
 20049.1862 -37302.81582 475582.171
 14297.3428 -37270.05352 475792.3921
 8563.711288 -37226.12692 475933.5559
 2851.744631 -37195.57764 476004.441
 -2851.742123 -37195.57466 476004.4412
 -8563.708777 -37226.11849 475933.5566
 -14297.34026 -37270.03959 475792.3933
 -20049.18367 -37302.7968 475582.1726
 -25774.69109 -37305.42694 475306.0506
 -31414.25569 -37204.56834 474974.5635
 -36861.06154 -36861.03166 474609.7321
 -41883.00523 -36075.79286 474253.3314
 -46072.84177 -34508.44695 473981.3621
 0 0 -0
 0 0 -0
 0 0 0
 0 0 0
 0 0 0
 40406.1708 -40406.17278 474032.2287
 36075.82447 -41883.00658 474253.3289
 31019.03467 -42579.20088 474548.9463
 25631.33376 -42848.19236 474846.2261
 20028.97233 -42966.30358 475104.8393
 14298.23503 -43052.39086 475304.0326
 8570.512058 -43068.95777 475440.3038
 2855.363759 -43060.56358 475509.7329
 -2855.361195 -43060.56102 475509.7331
 -8570.509479 -43068.94979 475440.3046
 -14298.23244 -43052.37784 475304.0339
 -20028.96969 -42966.28582 475104.841
 -25631.33112 -42848.17029 474846.2282
 -31019.03204 -42579.17533 474548.9488
 -36075.82189 -41882.97806 474253.3316
 -40406.16825 -40406.14181 474032.2316
 0 0 -0
 0 0 -0
 0 0 -0
 0 0 0
 0 0 0
 0 0 0
 0 0 0
 34508.47872 -46072.84295 473981.3597
 30171.88785 -47374.24642 474148.9315
 25294.09349 -47821.21338 474389.3039
 19913.401 -48113.36683 474616.0887
 14163.2671 -48488.91797 474784.2647
 8491.941767 -48615.5109 474906.6122
 2831.578214 -48642.27197 474971.3495
 -2831.575661 -48642.26948 474971.3498
 -8491.939203 -48615.50367 474906.613
 -14163.2645 -48488.90601 474784.266
 -19913.39835 -48113.35019 474616.0905
 -25294.09078 -47821.19281 474389.3061
 -30171.88515 -47374.22267 474148.9341
 -34508.47603 -46072.8166 473981.3624
 0 0 -0
 0 0 -0
 0 0 -0
 0 0 -0
 0 0 0
 0 0 0
 0 0 0
 0 0 0
 0 0 0
 28548.52055 -51125.03637 473859.7724
 24805.25169 -51445.73933 474035.7652
 19749.49238 -51928.62535 474220.673
 13646.22928 -53208.53112 474293.6895
 8229.919211 -53486.53884 474387.3205
 2757.528296 -53551.90951 474443.3162
 -2757.525792 -53551.90735 474443.3165
 -8229.916695 -53486.53237 474387.3213
 -13646.22674 -53208.52046 474293.6908
 -19749.48974 -51928.60973 474220.6748
 -24805.24895 -51445.71988 474035.7675
 -28548.51774 -51125.01457 473859.7749
 0 0 -0
 0 0 -0
 0 0 -0
 0 0 -0
 0 0 -0
 0 0 0
 0 0 0
 0 0 0
 0 0 0
 0 0 0
 0 0 0
 0 0 0
 0 0 0
 11673.38146 -56874.65692 473920.7496
 7675.084586 -56945.67112 473993.8343
 2634.007203 -56995.79559 474042.6274
 -2634.004746 -56995.79363 474042.6276
 -7675.082121 -56945.66551 473993.835
 -11673.37898 -56874.64867 473920.7506
 0 0 -0
 0 0 -0
 0 0 -0
 0 0 -0
 0 0 -0
 0 0 -0
 0 0 -0
 0 0 -0
 0 0 0
 0 0 0
 0 0 0
 0 0 0
 0 0 0
 0 0 0
 0 0 0
 0 0 0
 9764.639571 48925.58348 474850.3031
 6570.900914 48992.40652 474898.3456
 2277.808111 49046.01743 474932.8069
 -2277.810485 49046.01946 474932.8067
 -6570.903288 48992.41204 474898.345
 -9764.641982 48925.59173 474850.3022
 0 0 -0
 0 0 -0
 0 0 -0
 0 0 -0
 0 0 -0
 0 0 -0
 0 0 -0
 0 0 -0
 0 0 0
 0 0 0
 0 0 0
 0 0 0
 0 0 0
 24555.91394 43896.51845 474807.302
 21588.16921 44227.98999 474920.7378
 17159.42025 44841.65478 475043.8418
 11757.43055 46229.27882 475075.2445
 7138.46764 46627.29573 475128.2026
 2403.294034 46734.67824 475165.1979
 -2403.296439 46734.6802 475165.1977
 -7138.470103 46627.30231 475128.2019
 -11757.43298 46229.28931 475075.2434
 -17159.42287 44841.67032 475043.8402
 -21588.17191 44228.00931 474920.7358
 -24555.91676 43896.54013 474807.2999
 0 0 -0
 0 0 -0
 0 0 -0
 0 0 -0
 0 0 -0
 0 0 0
 0 0 0
 0 0 0
 0 0 0
 29582.24093 39716.5537 474888.7845
 26132.06604 41085.06655 474974.7401
 22124.79993 41674.97008 475126.8898
 17471.57771 42096.06858 475283.6377
 12422.44363 42589.72585 475398.4323
 7461.749544 42808.6435 475482.5061
 2492.046357 42876.28318 475528.4275
 -2492.048846 42876.28583 475528.4272
 -7461.751978 42808.65052 475482.5055
 -12422.44623 42589.7378 475398.4312
 -17471.58023 42096.08506 475283.6362
 -22124.80266 41674.99046 475126.8879
 -26132.06871 41085.09016 474974.7379
 -29582.24365 39716.57987 474888.7822
 0 0 -0
 0 0 -0
 0 0 -0
 0 0 -0
 0 0 0
 0 0 0
 0 0 0
 34759.61373 34759.61924 474926.7411
 31271.25678 36374.79313 475048.2651
 27134.92499 37279.88422 475232.3404
 22571.48387 37700.68997 475437.7534
 17697.43732 37925.62269 475626.2389
 12650.92851 38093.06857 475773.8364
 7590.641049 38167.71486 475875.4869
 2530.509462 38187.83205 475927.6807
 -2530.511927 38187.83453 475927.6805
 -7590.643622 38167.72282 475875.4862
 -12650.93094 38093.08141 475773.8353
 -17697.44001 37925.64029 475626.2374
 -22571.48639 37700.71188 475437.7516
 -27134.92766 37279.90948 475232.3383
 -31271.25936 36374.82148 475048.2628
 -34759.61633 34759.64996 474926.7387
 0 0 -0
 0 0 -0
 0 0 -0
 0 0 0
 0 0 0
 39716.54371 29582.24634 474888.785
 36374.78482 31271.26286 475048.2654
 32280.11689 32280.12572 475276.613
 27688.88267 32799.5989 475530.6335
 22818.79074 33020.34086 475773.9286
 17796.39352 33099.26082 475982.7713
 12708.57982 33123.93392 476144.0625
 7618.057312 33118.51109 476253.0847
 2537.809332 33107.23647 476308.0324
 -2537.811793 33107.23936 476308.0322
 -7618.059695 33118.51948 476253.0841
 -12708.58241 33123.94772 476144.0615
 -17796.3959 33099.27964 475982.7699
 -22818.79335 33020.36401 475773.9269
 -27688.88515 32799.62604 475530.6315
 -32280.11939 32280.15578 475276.6108
 -36374.78734 31271.29562 475048.263
 -39716.54623 29582.28104 474888.7827
 0 0 -0
 0 0 -0
 0 0 0
 43896.50796 24555.91944 474807.3027
 41085.05625 26132.0719 474974.7407
 37279.87424 27134.93239 475232.3408
 32799.58792 27688.89189 475530.6337
 27941.8435 27941.85549 475825.9949
 22904.02827 28015.45705 476090.7592
 17798.71834 28001.8866 476309.743
 12686.89538 27958.46259 476475.8529
 7596.899606 27913.74578 476586.8034
 2529.361561 27886.19831 476642.249
 -2529.363841 27886.20132 476642.2489
 -7596.901977 27913.7547 476586.8029
 -12686.89761 27958.47717 476475.8519
 -17798.72077 28001.90643 476309.7417
 -22904.03057 28015.48163 476090.7576
 -27941.84583 27941.88394 475825.9931
 -32799.59033 27688.92384 475530.6317
 -37279.87653 27134.96669 475232.3386
 -41085.05871 26132.10827 474974.7384
 -43896.51048 24555.95707 474807.3005
 0 0 -0
 0 0 0
 44227.97921 21588.17517 474920.7385
 41674.95819 22124.80679 475126.8905
 37700.67729 22571.49158 475437.7541
 33020.32729 22818.80162 475773.9291
 28015.44187 22904.04177 476090.7594
 22888.80366 22888.82034 476365.4856
 17744.16821 22826.61985 476587.8316
 12628.57349 22754.59801 476754.254
 7554.948317 22695.17291 476864.4705
 2514.259319 22662.0079 476919.2628
 -2514.261399 22662.01103 476919.2626
 -7554.950336 22695.18225 476864.47
 -12628.57563 22754.61334 476754.2532
 -17744.17025 22826.64058 476587.8305
 -22888.80575 22888.84602 476365.4843
 -28015.44404 22904.07169 476090.7578
 -33020.32926 22818.83482 475773.9273
 -37700.67951 22571.52759 475437.7522
 -41674.96024 22124.84446 475126.8886
 -44227.98143 21588.21394 474920.7365
 0 0 -0
 0 0 0
 44841.64205 17159.4266 475043.8427
 42096.05445 17471.58481 475283.6387
 37925.60713 17697.44658 475626.2398
 33099.24376 17796.40551 475982.7721
 28001.86766 17798.73322 476309.7435
 22826.59935 17744.18589 476587.8319
 17666.64793 17666.66938 476809.8674
 12559.12964 17590.65655 476974.5364
 7508.078595 17532.01035 477082.9369
 2497.803214 17500.35529 477136.6364
 -2497.804926 17500.35856 477136.6363
 -7508.080365 17532.02008 477082.9365
 -12559.13134 17590.67233 476974.5358
 -17666.64968 17666.69101 476809.8665
 -22826.60115 17744.21245 476587.8308
 -28001.86929 17798.76421 476309.7423
 -33099.24565 17796.44003 475982.7707
 -37925.60871 17697.48373 475626.2383
 -42096.05624 17471.62386 475283.6371
 -44841.64365 17159.4666 475043.8411
 0 0 -0
 48925.56731 9764.643536 474850.3047
 46229.26281 11757.43592 475075.2459
 42589.70843 12422.45105 475398.4337
 38093.04946 12650.93835 475773.8377
 33123.91302 12708.59286 476144.0637
 27958.43991 12686.91112 476475.8538
 22754.57431 12628.5924 476754.2546
 17590.63196 12559.1511 476974.5367
 12495.14544 12495.1694 477136.8917
 7466.082636 12447.26095 477243.3285
 2483.228252 12421.7954 477295.929
 -2483.229571 12421.79872 477295.9289
 -7466.083918 12447.27092 477243.3282
 -12495.14678 12495.18575 477136.8912
 -17590.6333 12559.17315 476974.5361
 -22754.57556 12628.61986 476754.2538
 -27958.44135 12686.94285 476475.8528
 -33123.91417 12708.62836 476144.0626
 -38093.05085 12650.97648 475773.8366
 -42589.70954 12422.49115 475398.4325
 -46229.26397 11757.47705 475075.2448
 -48925.5683 9764.685388 474850.3038
 48992.38738 6570.905587 474898.3475
 46627.27599 7138.473409 475128.2044
 42808.62205 7461.756879 475482.5079
 38167.69219 7590.651275 475875.4885
 33118.48696 7618.070879 476253.0862
 27913.72018 7596.917085 476586.8047
 22695.14609 7554.967709 476864.4714
 17531.98304 7508.099921 477082.9376
 12447.23353 7466.106456 477243.3288
 7435.092542 7435.119487 477348.2059
 2472.539186 7418.774369 477399.9577
 -2472.539998 7418.777873 477399.9577
 -7435.093386 7435.129589 477348.2057
 -12447.23433 7466.12306 477243.3286
 -17531.98387 7508.122517 477082.9372
 -22695.14696 7554.995472 476864.4709
 -27913.72093 7596.949601 476586.8041
 -33118.48786 7618.106809 476253.0856
 -38167.6929 7590.690277 475875.4878
 -42808.62286 7461.797533 475482.5072
 -46627.27667 7138.515357 475128.2037
 -48992.3881 6570.947939 474898.3469
 49045.99476 2277.813747 474932.8092
 46734.65488 2403.300357 475165.2002
 42876.25921 2492.054885 475528.4296
 38187.80653 2530.520563 475927.6827
 33107.20941 2537.824122 476308.0342
 27886.16961 2529.379366 476642.2506
 22661.97788 2514.279059 476919.2641
 17500.32468 2497.825089 477136.6375
 12421.76462 2483.252038 477295.9297
 7418.743203 2472.565924 477399.9581
 2466.918408 2466.949702 477451.2538
 -2466.918706 2466.953032 477451.2538
 -7418.743478 2472.576286 477399.958
 -12421.76494 2483.268712 477295.9296
 -17500.32495 2497.847859 477136.6373
 -22661.97819 2514.307235 476919.2639
 -27886.16991 2529.411916 476642.2504
 -33107.2097 2537.860711 476308.034
 -38187.80682 2530.559579 475927.6825
 -42876.25949 2492.096175 475528.4294
 -46734.65516 2403.342525 475165.2
 -49045.99503 2277.856495 474932.809
 49045.99389 -2277.803513 474932.8093
 46734.65431 -2403.289138 475165.2003
 42876.25906 -2492.039303 475528.4297
 38187.80624 -2530.499988 475927.6829
 33107.2094 -2537.797131 476308.0343
 27886.16926 -2529.346097 476642.2508
 22661.97794 -2514.241863 476919.2643
 17500.32508 -2497.783119 477136.6377
 12421.76468 -2483.205381 477295.93
 7418.743014 -2472.512547 477399.9583
 2466.918877 -2466.888737 477451.2541
 -2466.918624 -2466.885172 477451.2541
 -7418.742772 -2472.502416 477399.9584
 -12421.7644 -2483.188508 477295.93
 -17500.32488 -2497.760426 477136.6378
 -22661.97762 -2514.213762 476919.2644
 -27886.16909 -2529.313289 476642.251
 -33107.20908 -2537.760897 476308.0345
 -38187.80611 -2530.460591 475927.6831
 -42876.25878 -2491.998289 475528.4299
 -46734.65416 -2403.246808 475165.2005
 -49045.99368 -2277.760808 474932.8096
 48992.38438 -6570.895214 474898.348
 46627.27396 -7138.461778 475128.2048
 42808.6208 -7461.742325 475482.5083
 38167.69151 -7590.632093 475875.4889
 33118.48586 -7618.04577 476253.0867
 27913.71961 -7596.885451 476586.8052
 22695.14642 -7554.931215 476864.472
 17531.98391 -7508.058721 477082.9382
 12447.23423 -7466.059466 477243.3296
 7435.092642 -7435.066759 477348.2067
 2472.539381 -7418.713805 477399.9587
 -2472.5386 -7418.710434 477399.9587
 -7435.091853 -7435.056498 477348.2069
 -12447.23347 -7466.042984 477243.3298
 -17531.98306 -7508.036044 477082.9386
 -22695.14572 -7554.90338 476864.4725
 -27913.71873 -7596.853082 476586.8058
 -33118.48524 -7618.009573 476253.0873
 -38167.69065 -7590.593305 475875.4896
 -42808.62025 -7461.701482 475482.509
 -46627.27324 -7138.419897 475128.2055
 -48992.38377 -6570.852823 474898.3486
 48925.56245 -9764.63362 474850.3054
 46229.25919 -11757.42442 475075.2465
 42589.7058 -12422.43637 475398.4343
 38093.04727 -12650.91933 475773.8384
 33123.91129 -12708.56898 476144.0644
 27958.43871 -12686.88188 476475.8546
 22754.57464 -12628.55743 476754.2555
 17590.63341 -12559.11024 476974.5378
 12495.14645 -12495.12354 477136.8928
 7466.083485 -12447.20865 477243.3299
 2483.22898 -12421.73654 477295.9306
 -2483.227714 -12421.73322 477295.9307
 -7466.082215 -12447.19869 477243.3301
 -12495.14515 -12495.10711 477136.8933
 -17590.63218 -12559.08821 476974.5384
 -22754.57329 -12628.52995 476754.2563
 -27958.43755 -12686.85007 476475.8555
 -33123.90993 -12708.53351 476144.0654
 -38093.04622 -12650.88113 475773.8395
 -42589.70454 -12422.39624 475398.4355
 -46229.25823 -11757.38326 475075.2476
 -48925.56149 -9764.591746 474850.3064
 0 0 0
 44841.63814 -17159.41436 475043.8435
 42096.05096 -17471.57047 475283.6395
 37925.60397 -17697.42873 475626.2407
 33099.24131 -17796.38231 475982.7731
 28001.86617 -17798.70588 476309.7447
 22826.599 -17744.15312 476587.8331
 17666.64861 -17666.63017 476809.8688
 12559.13096 -17590.6119 476974.538
 7508.079853 -17531.9602 477082.9387
 2497.804989 -17500.29867 477136.6385
 -2497.803301 -17500.29527 477136.6386
 -7508.078166 -17531.95052 477082.9391
 -12559.12927 -17590.59609 476974.5386
 -17666.6469 -17666.60844 476809.8697
 -22826.59732 -17744.1266 476587.8342
 -28001.86443 -17798.67476 476309.7459
 -33099.23971 -17796.34785 475982.7745
 -37925.60221 -17697.3914 475626.2423
 -42096.04944 -17471.5315 475283.6411
 -44841.63652 -17159.37425 475043.8451
 0 0 -0
 0 0 0
 44227.97406 -21588.164 474920.7395
 41674.9536 -22124.79394 475126.8915
 37700.67344 -22571.47579 475437.7551
 33020.32385 -22818.78073 475773.9303
 28015.43976 -22904.0163 476090.7607
 22888.80243 -22888.79035 476365.4871
 17744.16768 -22826.5832 476587.8334
 12628.57421 -22754.5561 476754.256
 7554.950021 -22695.12529 476864.4727
 2514.261298 -22661.95394 476919.2653
 -2514.259285 -22661.951 476919.2655
 -7554.947985 -22695.1158 476864.4732
 -12628.5722 -22754.54075 476754.2568
 -17744.16561 -22826.56252 476587.8344
 -22888.80042 -22888.76448 476365.4884
 -28015.43769 -22903.98652 476090.7623
 -33020.32181 -22818.74726 475773.932
 -37700.67145 -22571.43995 475437.757
 -41674.95149 -22124.75604 475126.8935
 -44227.97195 -21588.12524 474920.7414
 0 0 -0
 0 0 0
 43896.50102 -24555.91004 474807.3038
 41085.04995 -26132.06055 474974.7418
 37279.86857 -27134.91783 475232.342
 32799.58339 -27688.87304 475530.6351
 27941.83985 -27941.83237 475825.9964
 22904.02611 -28015.42888 476090.7609
 17798.71721 -28001.85266 476309.745
 12686.89535 -27958.42242 476475.8552
 7596.901246 -27913.70046 476586.8061
 2529.363569 -27886.14757 476642.252
 -2529.361315 -27886.1443 476642.2522
 -7596.899004 -27913.69167 476586.8066
 -12686.89305 -27958.4078 476475.8561
 -17798.71497 -28001.83266 476309.7463
 -22904.02376 -28015.40443 476090.7625
 -27941.83762 -27941.80364 475825.9983
 -32799.58108 -27688.84125 475530.6371
 -37279.86627 -27134.88326 475232.3442
 -41085.04763 -26132.02426 474974.744
 -43896.49855 -24555.8723 474807.306
 0 0 -0
 0 0 0
 0 0 0
 39716.53622 -29582.23536 474888.7863
 36374.77722 -31271.24941 475048.2669
 32280.11043 -32280.10775 475276.6146
 27688.87792 -32799.57709 475530.6353
 22818.78737 -33020.31482 475773.9306
 17796.39166 -33099.22873 475982.7736
 12708.57959 -33123.89537 476144.0652
 7618.057913 -33118.46771 476253.0877
 2537.811454 -33107.18825 476308.0357
 -2537.809073 -33107.18566 476308.0359
 -7618.055512 -33118.45912 476253.0884
 -12708.57719 -33123.88155 476144.0663
 -17796.38918 -33099.20998 475982.775
 -22818.78497 -33020.29143 475773.9323
 -27688.87542 -32799.55008 475530.6373
 -32280.10803 -32280.07745 475276.6168
 -36374.77478 -31271.2167 475048.2692
 -39716.53375 -29582.20053 474888.7887
 0 0 -0
 0 0 -0
 0 0 0
 0 0 0
 0 0 0
 34759.60383 -34759.6048 474926.7429
 31271.24879 -36374.77534 475048.267
 27134.91908 -37279.86421 475232.3423
 22571.47974 -37700.66507 475437.7556
 17697.43486 -37925.59209 475626.2415
 12650.92734 -38093.03224 475773.8394
 7590.641085 -38167.67345 475875.4902
 2530.510832 -38187.786 475927.6844
 -2530.508409 -38187.78318 475927.6847
 -7590.63864 -38167.66568 475875.4909
 -12650.92486 -38093.01932 475773.8405
 -17697.43236 -37925.57433 475626.243
 -22571.47716 -37700.64326 475437.7575
 -27134.91656 -37279.83873 475232.3445
 -31271.24624 -36374.74701 475048.2694
 -34759.60129 -34759.57396 474926.7453
 0 0 -0
 0 0 -0
 0 0 -0
 0 0 0
 0 0 0
 0 0 0
 0 0 0