# OOMMF OVF 2.0
#
# Segment count: 1
#
# Begin: Segment
# Begin: Header
#
# Title: Oxs_MinDriver::Magnetization
# Desc: Oxs vector field output
# Desc:  MIF source file: F:/Bogdan/UNIC/2022/Master_degree/Samples/Cylinder11_7.mif
# Desc:  Iteration: 1123, State id: 6279
# Desc:  Stage: 1, Stage iteration: 407
# Desc:  Stage simulation time: 0 s
# Desc:  Total simulation time: -2 s
# meshunit: m
# meshtype: rectangular
# xbase: -2.0999999999999999e-08
# ybase: -2.0999999999999999e-08
# zbase: -8.9999999999999995e-09
# xnodes: 22
# ynodes: 22
# znodes: 10
# xstepsize: 2.0000000000000001e-09
# ystepsize: 2.0000000000000001e-09
# zstepsize: 2.0000000000000001e-09
# xmin: -2.1999999999999998e-08
# ymin: -2.1999999999999998e-08
# zmin: -1e-08
# xmax: 2.2000000000000005e-08
# ymax: 2.2000000000000005e-08
# zmax: 1e-08
# valuedim: 3
# valuelabels: Magnetization_x Magnetization_y Magnetization_z
# valueunits: A/m A/m A/m
#
# End: Header
#
# Begin: Data Text
 0 0 0
 0 0 0
 0 0 0
 0 0 0
 0 0 0
 0 0 0
 0 0 0
 0 0 0
 7747.685863 332518.079 342554.48
 5099.264921 332248.636 342865.444
 1753.13035 332117.2772 343026.1099
 -1753.980719 332117.2719 343026.1106
 -5100.111362 332248.6205 342865.4464
 -7748.525689 332518.0556 342554.4838
 0 0 -0
 0 0 -0
 0 0 -0
 0 0 -0
 0 0 -0
 0 0 -0
 0 0 -0
 0 0 -0
 0 0 0
 0 0 0
 0 0 0
 0 0 0
 0 0 0
 19753.10685 333667.2978 340951.3462
 16445.50923 333674.2234 341120.1096
 12053.54413 334102.7509 340884.0496
 8042.942773 334598.1771 340516.1409
 4940.798761 334878.7503 340299.4011
 1676.091251 334969.2876 340242.0291
 -1676.952636 334969.2819 340242.0305
 -4941.657525 334878.7334 340299.4053
 -8043.798414 334598.149 340516.1483
 -12054.40204 334102.7102 340884.0591
 -16446.35945 333674.1728 341120.118
 -19753.94583 333667.2401 340951.354
 0 0 -0
 0 0 -0
 0 0 -0
 0 0 -0
 0 0 -0
 0 0 0
 0 0 0
 0 0 0
 0 0 0
 21918.60641 335649.441 338867.0812
 19217.36457 335897.9804 338784.7561
 15906.52685 336483.4053 338375.1937
 11983.39532 337261.6796 337761.4972
 8210.377329 338080.8053 337054.6396
 4874.363809 338668.5811 336528.9053
 1625.753131 338947.5111 336279.3674
 -1626.630676 338947.5052 336279.3691
 -4875.239127 338668.5633 336528.9104
 -8211.249214 338080.7758 337054.648
 -11984.26311 337261.6383 337761.5077
 -15907.3862 336483.353 338375.2052
 -19218.21371 335897.9184 338784.7694
 -21919.45009 335649.3701 338867.0969
 0 0 -0
 0 0 -0
 0 0 -0
 0 0 -0
 0 0 0
 0 0 0
 0 0 0
 25327.29972 337039.8154 337245.5515
 22137.0794 337798.0949 336710.9563
 18952.94851 338943.4258 335752.9019
 15494.18986 340151.6195 334706.8525
 11813.94218 341330.3852 333655.3164
 8215.662684 342378.1911 332688.3654
 4847.707501 343140.3868 331968.4412
 1604.989946 343530.4333 331596.3461
 -1605.885664 343530.4272 331596.3481
 -4848.600841 343140.3688 331968.4468
 -8216.551546 342378.161 332688.3744
 -11814.82453 341330.3432 333655.3282
 -15495.0629 340151.566 334706.8664
 -18953.81113 338943.3613 335752.9184
 -22137.93331 337798.0201 336710.9752
 -25328.14887 337039.7318 337245.5713
 0 0 -0
 0 0 -0
 0 0 -0
 0 0 0
 0 0 0
 30228.04131 337716.6134 336163.0942
 26290.68785 338940.3164 335261.2906
 22565.00674 340650.1151 333796.631
 18929.31399 342460.295 332166.372
 15303.38591 344182.5001 330569.3335
 11686.50236 345720.3809 329108.9716
 8177.443786 346987.8667 327878.6682
 4829.968979 347888.0255 326990.0066
 1596.970993 348352.32 326527.1538
 -1597.885295 348352.314 326527.1557
 -4830.880616 347888.0073 326990.0125
 -8178.35018 346987.8364 327878.6776
 -11687.40099 345720.3386 329108.9841
 -15304.27455 344182.4458 330569.3489
 -18930.19131 342460.2292 332166.3899
 -22565.87325 340650.038 333796.6511
 -26291.54535 338940.2292 335261.3115
 -30228.89308 337716.5177 336163.1136
 0 0 -0
 0 0 -0
 0 0 0
 36162.46638 338108.927 335181.2954
 31594.26284 339544.1934 334190.686
 27201.87998 341598.0444 332479.6311
 23029.16091 343887.4589 330428.426
 19078.54427 346168.9698 328290.9148
 15296.5555 348278.066 326251.8589
 11656.56191 350105.6535 324441.0998
 8168.914523 351566.1464 322964.9901
 4830.673602 352584.6866 321920.1371
 1597.58263 353107.2058 321379.2467
 -1598.515087 353107.1997 321379.2488
 -4831.603109 352584.6685 321920.1429
 -8169.838263 351566.1161 322964.9997
 -11657.47722 350105.611 324441.1128
 -15297.46 348278.0114 326251.8747
 -19079.4365 346168.9032 328290.9332
 -23030.04035 343887.3807 330428.446
 -27202.74739 341597.9552 332479.6517
 -31595.11996 339544.0947 334190.7052
 -36163.31662 338108.8208 335181.3108
 0 0 -0
 0 0 0
 35622.7452 340604.0472 332703.7336
 32017.30188 342215.0531 331414.5759
 27709.92869 344566.7079 329359.7046
 23416.58563 347192.0078 326926.9712
 19312.62999 349796.545 324409.1102
 15421.37445 352188.2643 322020.9295
 11729.84263 354238.917 319920.4148
 8220.586459 355857.0353 318229.577
 4863.915174 356974.4232 317044.9097
 1609.104204 357544.7211 316434.9136
 -1610.053881 357544.7151 316434.9155
 -4864.861759 356974.4051 317044.9156
 -8221.526865 355857.0052 318229.5864
 -11730.77406 354238.8746 319920.4276
 -15422.29446 352188.2096 322020.9452
 -19313.53665 349796.4781 324409.1283
 -23417.47796 347191.929 326926.9911
 -27710.8063 344566.6177 329359.725
 -32018.16565 342214.953 331414.5958
 -35623.59761 340603.9399 332703.7521
 0 0 -0
 0 0 0
 35075.71697 342763.5091 330537.0512
 32061.44569 344653.1312 328874.0703
 28023.8477 347312.5608 326436.0893
 23775.03029 350225.148 323649.4476
 19619.57683 353085.6485 320807.5253
 15656.7817 355694.9713 318131.7712
 11903.84427 357918.0809 315792.364
 8343.690935 359660.974 313920.751
 4938.649529 360858.0797 312616.2621
 1634.272422 361467.0526 311946.7427
 -1635.23821 361467.0466 311946.7447
 -4939.612038 360858.0617 312616.2677
 -8344.647076 359660.9439 313920.7601
 -11904.79103 357918.0385 315792.3763
 -15657.71646 355694.9167 318131.7863
 -19620.49755 353085.5815 320807.5428
 -23775.93537 350225.0688 323649.4668
 -28024.7367 347312.4699 326436.1097
 -32062.31893 344653.03 328874.0913
 -35076.57742 342763.4003 330537.0727
 0 0 -0
 40703.67364 340860.8377 331856.854
 36541.12025 343419.851 329695.9565
 32707.07817 346360.2918 327011.7224
 28543.22266 349527.1557 324018.3995
 24257.82489 352752.2321 320857.1208
 20047.72204 355840.1542 317722.7483
 16012.64099 358625.7045 314806.4019
 12182.1362 360983.719 312272.6717
 8543.87102 362823.7959 310254.3581
 5059.767656 364083.3284 308852.0682
 1674.865911 364722.7076 308133.7577
 -1675.846579 364722.7017 308133.7594
 -5060.745007 364083.3104 308852.0734
 -8544.841751 362823.7658 310254.3665
 -12183.09732 360983.6767 312272.6831
 -16013.58977 358625.6498 314806.416
 -20048.65616 355840.0871 317722.7645
 -24258.74292 352752.1526 320857.1389
 -28544.12383 349527.0642 324018.4188
 -32707.96361 346360.1891 327011.7426
 -36541.99379 343419.7387 329695.9767
 -40704.54402 340860.7176 331856.8707
 41047.7537 342344.7445 330283.2559
 37698.63819 344650.4448 328278.4716
 33632.69279 347793.2987 325392.8927
 29311.74323 351228.2362 322104.6711
 24930.6534 354676.6166 318676.688
 20632.84813 357938.5079 315319.174
 16502.56011 360858.3365 312219.1502
 12569.67882 363317.8652 309538.3713
 8824.245174 365230.7432 307409.3496
 5229.548381 366537.1191 305933.1029
 1731.736048 367199.3768 305177.8007
 -1732.730471 367199.3708 305177.8023
 -5230.539392 366537.1012 305933.1074
 -8825.229512 365230.7131 307409.3571
 -12570.65333 363317.8228 309538.3814
 -16503.52201 360858.2817 312219.1627
 -20633.79516 357938.4405 315319.1885
 -24931.58382 354676.5367 318676.7041
 -29312.65649 351228.1441 322104.6884
 -33633.58952 347793.1951 325392.9108
 -37699.52102 344650.3311 328278.4895
 -41048.62713 342344.6236 330283.2727
 41538.27938 343405.1515 329119.0432
 38618.76783 345624.2926 327145.7022
 34634.56216 348802.9228 324204.9344
 30256.27105 352353.6285 320785.5199
 25782.06857 355928.4914 317209.8127
 21376.74621 359300.6791 313716.3177
 17127.50315 362309.5258 310500.1247
 13065.96902 364837.6323 307724.9645
 9184.30349 366800.2601 305524.2855
 5447.867643 368138.9433 303999.8527
 1804.895163 368817.0798 303220.3412
 -1805.90231 368817.0738 303220.3425
 -5448.87138 368138.9252 303999.8567
 -9185.300423 366800.2299 305524.2918
 -13066.95607 364837.5897 307724.9731
 -17128.47743 362309.4707 310500.1352
 -21377.70538 359300.6114 313716.3299
 -25783.01095 355928.411 317209.8263
 -30257.1958 352353.5358 320785.5346
 -34635.46971 348802.8184 324204.9497
 -38619.65989 345624.1779 327145.7181
 -41539.15991 343405.0298 329119.0591
 42109.69055 343723.4947 328713.864
 39527.31629 345982.2906 326658.4105
 35707.09892 349214.5896 323644.9363
 31328.24356 352821.6301 320167.6276
 26776.34951 356450.7403 316540.3105
 22258.05829 359872.5976 312998.664
 17874.45067 362924.7443 309738.608
 13662.76458 365488.4849 306925.671
 9619.040116 367478.2729 304695.035
 5712.103852 368835.2147 303149.8434
 1893.539874 369522.515 302359.7141
 -1894.558934 369522.5089 302359.7152
 -5713.119432 368835.1965 303149.8464
 -9620.04895 367478.2423 304695.04
 -13663.76338 365488.442 306925.6777
 -17875.43669 362924.6887 309738.6163
 -22259.02905 359872.5293 312998.6735
 -26777.30332 356450.6592 316540.3211
 -31329.17956 352821.5366 320167.6391
 -35708.0174 349214.4842 323644.9487
 -39528.21902 345982.175 326658.4237
 -42110.58137 343723.3719 328713.8784
 42756.12908 343252.999 329121.8063
 40560.96586 345702.4598 326827.919
 36865.91632 349009.4139 323736.3194
 32480.35121 352609.5046 320286.4895
 27864.23546 356217.0525 316709.4365
 23241.37627 359625.8598 313210.7129
 18720.12292 362674.538 309981.6249
 14345.07373 365240.4933 307189.6356
 10119.2043 367234.6778 304972.3994
 6017.261651 368595.7988 303435.0029
 1996.096929 369285.5593 302648.4142
 -1997.12725 369285.5531 302648.4149
 -6018.288556 368595.7802 303435.0051
 -10120.22434 367234.6469 304972.4028
 -14346.08384 365240.4497 307189.6402
 -18721.12011 362674.4817 309981.6306
 -23242.35825 359625.7906 313210.7196
 -27865.20035 356216.9705 316709.4438
 -32481.29826 352609.41 320286.4976
 -36866.84601 349009.3075 323736.3283
 -40561.88041 345702.343 326827.929
 -42757.03263 343252.8749 329121.8184
 43372.00385 342195.3906 330140.9627
 41632.97829 345127.3082 327300.6379
 37945.73228 348333.0267 324339.4752
 33592.88132 351755.1503 321110.1117
 28973.68172 355232.4982 317714.1313
 24282.41922 358558.2434 314353.6568
 19635.16383 361554.86 311230.485
 15092.87861 364088.3783 308518.6041
 10671.81413 366063.1237 306358.896
 6356.110492 367413.6175 304858.4997
 2110.257332 368098.7856 304089.9573
 -2111.298524 368098.7794 304089.9577
 -6357.14823 367413.5986 304858.5008
 -10672.84511 366063.0921 306358.8978
 -15093.89958 364088.334 308518.6065
 -19636.17204 361554.8027 311230.488
 -24283.41211 358558.1731 314353.6602
 -28974.65768 355232.4151 317714.1353
 -33593.83936 351755.0546 321110.1163
 -37946.67295 348332.9194 324339.4805
 -41633.90444 345127.1907 327300.644
 -43372.92035 342195.2652 330140.9722
 0 0 0
 41392.18936 345217.059 327236.5202
 38462.87228 347320.7804 325362.4967
 34506.59516 350278.1071 322624.2612
 30041.65067 353516.8076 319523.4534
 25341.92771 356695.8918 316382.2037
 20587.77196 359592.2383 313434.9009
 15881.18031 362056.0239 310861.8584
 11259.6066 363984.752 308804.4573
 6718.82162 365307.9997 307370.7762
 2232.859441 365980.6762 306635.0115
 -2233.911258 365980.6698 306635.0115
 -6719.870027 365307.9804 307370.7762
 -11260.64828 363984.7197 308804.4574
 -15882.21211 362055.9786 310861.8584
 -20588.791 359592.1799 313434.9009
 -25342.93177 356695.8202 316382.2039
 -30042.63787 353516.7232 319523.454
 -34507.56474 350278.0103 322624.2625
 -38463.82442 347320.6725 325362.4993
 -41393.12689 345216.943 327236.5239
 0 0 -0
 0 0 0
 40615.89126 343583.0274 329048.5131
 38690.854 345417.9208 327355.0811
 35327.01559 348109.4526 324874.8718
 31084.69541 351122.5398 322053.6835
 26392.20796 354113.488 319184.8371
 21537.26012 356857.3178 316482.0255
 16674.50084 359205.9269 314109.749
 11858.25571 361056.1162 312201.4318
 7091.789945 362332.21 310864.8379
 2359.55255 362983.0451 310176.7444
 -2360.614896 362983.0386 310176.744
 -7092.848949 362332.1901 310864.8369
 -11859.30806 361056.0832 312201.4301
 -16675.54345 359205.8805 314109.7466
 -21538.2902 356857.2581 316482.0227
 -26393.22323 354113.4152 319184.834
 -31085.69455 351122.454 322053.6806
 -35327.99793 348109.3546 324874.87
 -38691.82012 345417.8121 327355.0816
 -40616.84381 343582.9111 329048.517
 0 0 -0
 0 0 0
 40183.96687 341383.9111 331382.1742
 39180.58838 343112.903 329712.4332
 36213.14666 345545.4684 327503.9061
 32089.13958 348263.501 325045.6772
 27357.36525 350976.3783 322550.8142
 22403.85059 353483.0295 320186.9557
 17414.8095 355651.3494 318089.1595
 12432.36754 357380.84 316379.9025
 7455.991916 358585.4553 315170.9865
 2484.211661 359203.0517 314545.4937
 -2485.284521 359203.0449 314545.493
 -7457.061488 358585.435 315170.9843
 -12433.43066 357380.8061 316379.8991
 -17415.86301 355651.3019 318089.1549
 -22404.89172 353482.9686 320186.9502
 -27358.39196 350976.3041 322550.8079
 -32090.15074 348263.4139 325045.6707
 -36214.14243 345545.3694 327503.9006
 -39181.56961 343112.7934 329712.4306
 -40184.93548 341383.7938 331382.1775
 0 0 -0
 0 0 0
 0 0 0
 39173.05326 341574.1127 331307.212
 36811.73924 343160.1459 329936.1777
 32790.40608 345290.8388 328132.4385
 28022.19359 347536.4147 326197.8976
 23034.76875 349669.1901 324303.4508
 18015.75135 351567.2397 322564.3811
 12935.21828 353125.4764 321102.7085
 7784.896583 354230.2437 320050.3103
 2597.526735 354799.9914 319502.8799
 -2598.61002 354799.9845 319502.8788
 -7785.976766 354230.2228 320050.3072
 -12936.29219 353125.4416 321102.7034
 -18016.81601 351567.1911 322564.3746
 -23035.82103 349669.1279 324303.4431
 -28023.23142 347536.3394 326197.8887
 -32791.42893 345290.7509 328132.4288
 -36812.74764 343160.0466 329936.1685
 -39174.04852 341574.0044 331307.206
 0 0 -0
 0 0 -0
 0 0 0
 0 0 0
 0 0 0
 36021.60083 341479.804 331761.7504
 32642.07806 342571.8993 330984.6822
 28012.69873 344095.1088 329826.7972
 23211.58719 345681.2424 328538.5399
 18386.8486 347207.5822 327231.8596
 13313.55127 348545.7411 326052.8899
 8035.799001 349517.2406 325184.5564
 2681.938276 350016.0631 324735.9452
 -2683.031795 350016.056 324735.9438
 -8036.889438 349517.2193 325184.5524
 -13314.636 348545.7056 326052.8836
 -18387.92452 347207.5327 327231.8517
 -23212.65078 345681.1794 328538.531
 -28013.74739 344095.033 329826.7872
 -32643.11185 342571.8118 330984.6708
 -36022.62131 341479.7068 331761.7397
 0 0 -0
 0 0 -0
 0 0 -0
 0 0 0
 0 0 0
 0 0 0
 0 0 0
 30777.79487 340510.6076 333282.3499
 26854.05226 341001.4192 333119.7432
 22731.02953 341881.8472 332523.6445
 18508.26963 342960.6854 331673.4591
 13485.22593 344037.9109 330798.9356
 8111.740985 344818.2126 330161.2806
 2697.978477 345197.8854 329853.016
 -2699.081646 345197.8782 329853.0145
 -8112.841021 344818.1911 330161.276
 -13486.32051 344037.8751 330798.9283
 -18509.35709 342960.6352 331673.4503
 -22732.10446 341881.784 332523.636
 -26855.11136 341001.3443 333119.7344
 -30778.83955 340510.5227 333282.3401
 0 0 -0
 0 0 -0
 0 0 -0
 0 0 -0
 0 0 0
 0 0 0
 0 0 0
 0 0 0
 0 0 0
 23866.55229 338703.8479 335681.3406
 21684.01972 338900.1283 335631.312
 18543.65195 339566.9556 335145.1729
 13104.71728 340229.0704 334730.2157
 7768.974378 340652.4326 334465.8944
 2574.571804 340821.146 334374.3252
 -2575.683804 340821.1389 334374.3238
 -7770.082136 340652.4114 334465.8902
 -13105.819 340229.0354 334730.2082
 -18544.74953 339566.905 335145.1635
 -21685.10508 338900.0655 335631.3053
 -23867.62135 338703.7764 335681.3367
 0 0 -0
 0 0 -0
 0 0 -0
 0 0 -0
 0 0 -0
 0 0 0
 0 0 0
 0 0 0
 0 0 0
 0 0 0
 0 0 0
 0 0 0
 0 0 0
 10193.91773 337881.4818 337200.3256
 6723.651071 337687.5823 337481.4966
 2307.751668 337610.2208 337617.9562
 -2308.870752 337610.214 337617.9554
 -6724.764248 337687.5625 337481.4942
 -10195.02095 337881.4519 337200.3222
 0 0 -0
 0 0 -0
 0 0 -0
 0 0 -0
 0 0 -0
 0 0 -0
 0 0 -0
 0 0 -0
 0 0 0
 0 0 0
 0 0 0
 0 0 0
 0 0 0
 0 0 0
 0 0 0
 0 0 0
 6424.978958 330941.3547 344105.232
 4341.853825 330525.2099 344537.5237
 1510.437822 330338.5152 344740.5622
 -1511.299891 330338.5104 344740.563
 -4342.711749 330525.1962 344537.5261
 -6425.829887 330941.3342 344105.2358
 0 0 -0
 0 0 -0
 0 0 -0
 0 0 -0
 0 0 -0
 0 0 -0
 0 0 -0
 0 0 -0
 0 0 0
 0 0 0
 0 0 0
 0 0 0
 0 0 0
 17110.34482 332215.8895 342507.971
 14232.91423 332053.7886 342796.6991
 10125.15042 332424.3081 342583.4672
 6596.485312 332928.8394 342179.4055
 4122.71963 333180.5676 341973.0747
 1414.834881 333254.3039 341923.147
 -1415.705989 333254.2988 341923.1484
 -4123.587939 333180.5523 341973.0791
 -6597.350908 332928.8143 342179.4133
 -10126.01888 332424.2715 342583.477
 -14233.77498 332053.7431 342796.7074
 -17111.19372 332215.8382 342507.9783
 0 0 -0
 0 0 -0
 0 0 -0
 0 0 -0
 0 0 -0
 0 0 0
 0 0 0
 0 0 0
 0 0 0
 18410.29363 334298.6986 340407.5682
 16326.89923 334401.9655 340412.4398
 13625.79648 334914.8621 340026.8285
 10167.82151 335694.3242 339378.5606
 6882.899185 336556.4657 338606.3236
 4088.978595 337173.4986 338037.2514
 1368.453016 337464.0951 337769.127
 -1369.338568 337464.0897 337769.1288
 -4089.862008 337173.4827 338037.2567
 -6883.779153 336556.439 338606.3322
 -10168.69782 335694.2868 339378.5713
 -13626.66408 334914.8151 340026.84
 -16327.75662 334401.91 340412.4532
 -18411.14579 334298.6357 340407.5839
 0 0 -0
 0 0 -0
 0 0 -0
 0 0 -0
 0 0 0
 0 0 0
 0 0 0
 21258.03078 335776.6826 338783.0971
 18603.2507 336422.6407 338298.0892
 16098.73017 337540.1436 337311.953
 13251.41123 338765.4873 336205.6157
 10091.52585 339985.8469 335081.5666
 6986.066167 341085.4694 334041.5674
 4113.80602 341888.0469 333267.9272
 1361.812961 342298.4754 332868.999
 -1362.715344 342298.47 332869.0008
 -4114.705989 341888.0305 333267.9329
 -6986.96178 341085.4422 334041.5765
 -10092.41474 339985.809 335081.5783
 -13252.29092 338765.4389 336205.6298
 -16099.59919 337540.0857 337311.9695
 -18604.11151 336422.5738 338298.1084
 -21258.88737 335776.6083 338783.1169
 0 0 -0
 0 0 -0
 0 0 -0
 0 0 0
 0 0 0
 25738.42829 336500.9322 337752.1684
 22275.57011 337633.1837 336867.1897
 19194.10807 339343.8297 335334.4939
 16195.3035 341203.6895 333600.9978
 13146.1167 342988.118 331900.8916
 10045.73798 344588.6487 330347.7223
 7019.389751 345912.4952 329039.7318
 4140.3449 346854.3261 328095.7259
 1368.081763 347340.3063 327604.5043
 -1369.001502 347340.3007 327604.5064
 -4141.261952 346854.3097 328095.7316
 -7020.301419 345912.4678 329039.7412
 -10046.64197 344588.6104 330347.7348
 -13147.01034 342988.069 331900.9068
 -16196.18593 341203.63 333601.0157
 -19194.97968 339343.7606 335334.5139
 -22276.43335 337633.1058 336867.2107
 -25739.28647 336500.8474 337752.1875
 0 0 -0
 0 0 -0
 0 0 0
 31264.01526 336981.2334 336805.7022
 27151.10867 338298.7505 335840.2061
 23379.85425 340347.2343 334049.4182
 19834.63992 342696.1766 331870.1386
 16474.22945 345057.7029 329599.2305
 13233.42113 347246.3824 327439.6094
 10090.25874 349144.8814 325527.126
 7068.303743 350663.2738 323970.9536
 4177.058018 351722.7561 322870.7579
 1380.816321 352266.3964 322301.6453
 -1381.753036 352266.3911 322301.6471
 -4177.991766 351722.7396 322870.7638
 -7069.231651 350663.2465 323970.963
 -10091.17795 349144.8431 325527.1386
 -13234.32956 347246.333 327439.6251
 -16475.12529 345057.6429 329599.2485
 -19835.52311 342696.1062 331870.1585
 -23380.72543 340347.1545 334049.4385
 -27151.9702 338298.6627 335840.2248
 -31264.8706 336981.1399 336805.7163
 0 0 -0
 0 0 0
 30611.0845 339558.3036 334267.8436
 27679.0871 341052.3067 333000.0954
 24042.40109 343417.5494 330844.7083
 20363.02704 346113.1379 328272.6218
 16820.21045 348803.4271 325614.9889
 13444.10894 351277.9635 323102.0266
 10229.51897 353400.4549 320897.7201
 7168.302735 355075.4428 319126.8034
 4240.068818 356232.1522 317887.6324
 1402.390143 356822.5243 317250.0445
 -1403.342966 356822.5187 317250.0466
 -4241.018439 356232.136 317887.6379
 -7169.246133 355075.4154 319126.8126
 -10230.45327 353400.4166 320897.7324
 -13445.03151 351277.9142 323102.0418
 -16821.11967 348803.3668 325615.0066
 -20363.9215 346113.0671 328272.6409
 -24043.28102 343417.4686 330844.7282
 -27679.95308 341052.2177 333000.1145
 -30611.93972 339558.2094 334267.861
 0 0 -0
 0 0 0
 30020.58842 341764.9937 332065.2415
 27783.19758 343559.9078 330403.6244
 24458.55025 346242.1051 327856.7603
 20824.48558 349226.395 324929.434
 17215.99633 352171.2795 321948.5528
 13751.39008 354861.2876 319149.2395
 10459.30867 357153.7766 316707.5213
 7331.722528 358950.979 314757.5445
 4339.348067 360185.2552 313400.101
 1435.812929 360813.0856 312703.8967
 -1436.780699 360813.0803 312703.8984
 -4340.312576 360185.2389 313400.1064
 -7332.680459 358950.9519 314757.5531
 -10460.2571 357153.7384 316707.533
 -13752.32639 354861.2383 319149.254
 -17216.91814 352171.2193 321948.5694
 -20825.39185 349226.3238 324929.4525
 -24459.43989 346242.0238 327856.7798
 -27784.07168 343559.8177 330403.6445
 -30021.45002 341764.898 332065.2622
 0 0 -0
 35174.26814 339821.0414 333551.0485
 31566.75468 342319.981 331349.4257
 28522.78951 345264.7714 328558.3045
 25065.89941 348487.3223 325423.045
 21387.52455 351791.0033 322114.1647
 17713.63483 354962.1298 318841.6298
 14164.54192 357825.0427 315804.4899
 10782.42743 360248.8528 313171.4779
 7564.203984 362140.0701 311077.5205
 4480.024685 363434.4165 309624.3298
 1482.962877 364091.3967 308880.4412
 -1483.944426 364091.3913 308880.4429
 -4481.002807 363434.4004 309624.3345
 -7565.175475 362140.043 311077.5284
 -10783.38908 360248.8148 313171.4886
 -14165.49097 357824.9935 315804.5031
 -17714.56918 354962.0694 318841.6451
 -21388.44223 351790.932 322114.1816
 -25066.80033 348487.2404 325423.0633
 -28523.67444 345264.68 328558.3236
 -31567.6285 342319.8819 331349.4448
 -35175.1401 339820.9363 333551.0637
 35491.54999 341291.6291 332012.4171
 32873.1052 343512.5115 329985.431
 29563.67479 346681.7741 326970.3471
 25916.62268 350185.1503 323528.2994
 22125.09059 353714.7565 319950.3441
 18351.91195 357057.6277 316456.8361
 14697.62487 360051.0002 313239.7299
 11203.55941 362572.4362 310463.4924
 7868.668638 364533.1738 308262.0972
 4664.328486 365872.0231 306737.3112
 1544.689468 366550.6669 305957.6667
 -1545.683606 366550.6616 305957.6681
 -4665.319202 365872.0068 306737.3155
 -7869.652493 364533.1468 308262.104
 -11204.53333 362572.398 310463.5017
 -14698.58601 360050.951 313239.7413
 -18352.85781 357057.5673 316456.8494
 -22126.01979 353714.6849 319950.359
 -25917.53427 350185.068 323528.3154
 -29564.56993 346681.6821 326970.3638
 -32873.98653 343512.4112 329985.4476
 -35492.42289 341291.5237 332012.4321
 35955.96499 342356.0841 330864.5517
 33851.21046 344471.7569 328884.7451
 30636.04349 347666.3397 325824.217
 26918.97919 351281.266 322255.6625
 23022.0009 354933.7135 318534.0136
 19132.0487 358382.5773 314909.1366
 15351.31507 361460.5089 311580.662
 11721.88834 364046.5049 308714.4488
 8244.377602 366053.7786 306444.9913
 4892.021928 367422.715 304874.5446
 1620.972982 368116.1074 304071.9902
 -1621.978689 368116.1019 304071.9915
 -4893.024107 367422.6988 304874.548
 -8245.372987 366053.7514 306444.997
 -11722.87357 364046.4668 308714.4564
 -15352.28738 361460.4594 311580.6715
 -19133.00567 358382.5166 314909.1475
 -23022.9407 354933.6416 318534.0258
 -26919.90122 351281.1833 322255.6757
 -30636.94797 347666.2469 325824.2309
 -33852.09969 344471.6561 328884.7591
 -35956.84323 342355.9782 330864.5658
 36488.42328 342637.7503 330514.5054
 34765.70327 344787.89 328457.8026
 31735.14426 348029.6639 325330.7624
 28018.26659 351694.1933 321711.1164
 24038.82751 355394.4115 317944.6781
 20031.03695 358887.0721 314278.0589
 16111.85013 362003.253 310911.4414
 12328.79502 364620.7784 308012.2726
 8686.1291 366652.113 305716.618
 5160.39429 368037.238 304127.988
 1710.985503 368738.7592 303316.1243
 -1712.001856 368738.7539 303316.1251
 -5161.407225 368037.2215 304127.9907
 -8687.134977 366652.0857 305716.6222
 -12329.79091 364620.7398 308012.2784
 -16112.83287 362003.2033 310911.4484
 -20032.00426 358887.011 314278.0671
 -24039.77757 355394.3391 317944.6872
 -28019.1985 351694.11 321711.1263
 -31736.05855 348029.5707 325330.7729
 -34766.60169 344787.7885 328457.8141
 -36489.31058 342637.6439 330514.5178
 37077.37497 342093.4331 331012.4206
 35775.80652 344441.4413 328712.7264
 32885.12765 347755.5699 325509.6055
 29166.298 351404.1321 321925.9764
 25124.11697 355073.6422 318219.0419
 21012.10561 358545.9229 314603.2166
 16955.32353 361653.0601 311273.9187
 13009.04537 364268.6394 308400.7043
 9184.598868 366301.3955 306122.2013
 5464.441061 367688.7785 304543.8775
 1813.156835 368391.8171 303736.8151
 -1814.183201 368391.8116 303736.8157
 -5465.463839 367688.762 304543.8791
 -9185.614885 366301.3677 306122.204
 -13010.05106 364268.6005 308400.7078
 -16956.31631 361653.0096 311273.9232
 -21013.08271 358545.8612 314603.2217
 -25125.07684 355073.5691 318219.0477
 -29167.23969 351404.0483 321925.9826
 -32886.05169 347755.476 325509.6125
 -35776.71563 344441.3393 328712.7343
 -37078.27387 342093.3259 331012.4307
 37617.42128 340992.2075 332086.006
 36782.51245 343828.8453 329242.5295
 33907.21185 347008.5214 326201.2543
 30236.63269 350454.231 322861.3468
 26203.14025 353978.833 319349.7338
 22030.0517 357359.0786 315881.3655
 17852.15102 360408.191 312664.5293
 13742.64959 362987.174 309876.3018
 9726.914734 364997.6362 307658.876
 5797.030839 366372.6037 306119.8801
 1925.215769 367070.19 305332.0167
 -1926.251562 367070.1844 305332.0169
 -5798.06319 366372.5869 306119.8807
 -9727.940079 364997.608 307658.877
 -13743.66497 362987.1344 309876.3032
 -17853.15316 360408.14 312664.5308
 -22031.03857 357359.016 315881.3675
 -26204.10961 353978.7593 319349.736
 -30237.58392 350454.1465 322861.3495
 -33908.14547 347008.4273 326201.2575
 -36783.43168 343828.7432 329242.5334
 -37618.33231 340992.0996 332086.0136
 0 0 0
 36424.22837 343943.7547 329162.3315
 34293.12943 345921.5149 327313.5471
 31062.99536 348860.8747 324504.317
 27211.61908 352129.4754 321303.9552
 23045.62333 355353.9348 318063.4395
 18770.72255 358296.8498 315028.4093
 14504.83683 360801.9487 312383.474
 10296.05446 362763.592 310271.5567
 6148.525235 364109.6151 308801.3199
 2044.074502 364793.9171 308047.2222
 -2045.119394 364793.9114 308047.222
 -6149.566669 364109.5978 308801.3195
 -10297.08907 362763.5632 310271.556
 -14505.86132 360801.9084 312383.473
 -18771.73429 358296.7978 315028.4082
 -23046.61951 355353.8714 318063.4381
 -27212.5984 352129.4008 321303.9541
 -31063.95653 348860.7896 324504.3164
 -34294.07292 345921.4209 327313.5476
 -36425.15727 343943.6549 329162.333
 0 0 -0
 0 0 0
 35344.0402 342208.873 331082.7047
 34321.55839 343890.1404 329444.1883
 31757.71164 346546.7139 326907.7762
 28168.41825 349579.117 323995.1427
 24031.44625 352607.6056 321033.0783
 19670.16196 355391.7437 318247.8037
 15260.0575 357776.9921 315807.8939
 10867.84213 359657.062 313847.9872
 6505.523728 360954.2313 312476.5469
 2165.469243 361615.9466 311770.8922
 -2166.522988 361615.9407 311770.8917
 -6506.574031 360954.2137 312476.5453
 -10868.88574 359657.0326 313847.9847
 -15261.09121 357776.9509 315807.8906
 -19671.18279 355391.6909 318247.7995
 -24032.45231 352607.5412 321033.0737
 -28169.40759 349579.0415 323995.1381
 -31758.68414 346546.6282 326907.7725
 -34322.51444 343890.0463 329444.1871
 -35344.98321 342208.7735 331082.7069
 0 0 -0
 0 0 0
 34689.42624 339893.2788 333528.2207
 34616.7502 341463.1641 331928.3951
 32491.15755 343836.2418 329685.9639
 29057.63988 346555.6209 327149.3947
 24907.82973 349292.8424 324570.4571
 20467.87546 351829.6268 322131.7294
 15948.89011 354027.5942 319971.8218
 11406.55774 355783.1152 318213.9793
 6849.069176 357007.0017 316971.5481
 2283.331573 357634.7575 316329.0027
 -2284.393907 357634.7515 316329.0017
 -6850.12826 357006.9836 316971.5455
 -11407.61016 355783.0852 318213.9752
 -15949.93284 354027.5522 319971.8163
 -20468.90565 351829.573 322131.7227
 -24908.84503 349292.7772 324570.4493
 -29058.63969 346555.5448 327149.3865
 -32492.14156 343836.1558 329685.9566
 -34617.72002 341463.07 331928.3907
 -34690.38448 339893.179 333528.2228
 0 0 -0
 0 0 0
 0 0 0
 34455.72838 339924.1655 333520.9676
 32881.44923 341368.6159 332201.9712
 29590.65421 343440.1665 330371.1799
 25444.82277 345675.838 328378.8168
 21002.68575 347816.9815 326426.2641
 16481.07643 349732.1056 324634.7174
 11864.21241 351311.166 323127.8019
 7152.228843 352433.2581 322042.7231
 2388.224273 353012.3084 321478.5806
 -2389.294978 353012.3023 321478.5794
 -7153.296261 352433.2397 322042.7196
 -11865.27367 351311.1354 323127.7963
 -16482.12809 349732.0629 324634.71
 -21003.72489 347816.9271 326426.2551
 -25445.84728 345675.7723 328378.8065
 -29591.66331 343440.0905 330371.1685
 -32882.44411 341368.5308 332201.9602
 -34456.71057 339924.0733 333520.9601
 0 0 -0
 0 0 -0
 0 0 0
 0 0 0
 0 0 0
 31848.27952 339713.4203 333994.5366
 29189.23983 340643.9872 333288.9641
 25243.34447 342082.8115 332135.5069
 21041.43402 343631.9509 330826.5583
 16759.1258 345152.5861 329485.5009
 12184.46229 346505.3217 328264.3328
 7370.256833 347491.3678 327364.1701
 2461.756656 347997.2904 326900.133
 -2462.835101 347997.2841 326900.1315
 -7371.332347 347491.3492 327364.1657
 -12185.53171 346505.2907 328264.3258
 -16760.18661 345152.543 329485.4921
 -21042.48198 343631.8961 330826.5485
 -25244.37725 342082.7462 332135.4956
 -29190.25774 340643.9125 333288.9513
 -31849.28453 339713.3379 333994.5245
 0 0 -0
 0 0 -0
 0 0 -0
 0 0 0
 0 0 0
 0 0 0
 0 0 0
 27040.23069 338606.1641 335539.2121
 23815.11467 338911.7599 335475.0819
 20367.43263 339671.4389 334933.3554
 16753.82969 340705.9196 334081.8116
 12276.01402 341790.8657 333166.8874
 7398.645285 342574.8757 332505.0164
 2461.710637 342952.7206 332188.565
 -2462.796083 342952.7144 332188.5634
 -7399.727324 342574.857 332505.0115
 -12277.09087 341790.8348 333166.8795
 -16754.89906 340705.8763 334081.8021