# OOMMF OVF 2.0
#
# Segment count: 1
#
# Begin: Segment
# Begin: Header
#
# Title: Oxs_MinDriver::Magnetization
# Desc: Oxs vector field output
# Desc:  MIF source file: F:/Bogdan/UNIC/2022/Master_degree/Samples/Cylinder11_7.mif
# Desc:  Iteration: 957, State id: 12385
# Desc:  Stage: 5, Stage iteration: 39
# Desc:  Stage simulation time: 0 s
# Desc:  Total simulation time: -2 s
# meshunit: m
# meshtype: rectangular
# xbase: -3.5000000000000003e-09
# ybase: -3.5000000000000003e-09
# zbase: -9.5000000000000007e-09
# xnodes: 8
# ynodes: 8
# znodes: 20
# xstepsize: 1.0000000000000001e-09
# ystepsize: 1.0000000000000001e-09
# zstepsize: 1.0000000000000001e-09
# xmin: -4.0000000000000002e-09
# ymin: -4.0000000000000002e-09
# zmin: -1e-08
# xmax: 4.0000000000000002e-09
# ymax: 4.0000000000000002e-09
# zmax: 1e-08
# valuedim: 3
# valuelabels: Magnetization_x Magnetization_y Magnetization_z
# valueunits: A/m A/m A/m
#
# End: Header
#
# Begin: Data Text
 0 0 0
 0 0 0
 2272.88319 6542.483623 477413.7631
 860.9486938 6627.084995 477417.2303
 -860.9485778 6627.084988 477417.2303
 -2272.883075 6542.483627 477413.7631
 0 0 -0
 0 0 -0
 0 0 0
 4567.566213 4567.569769 477420.3032
 2909.528483 5106.716183 477427.8243
 1006.056204 5268.004314 477433.8774
 -1006.056087 5268.004331 477433.8774
 -2909.528367 5106.71617 477427.8243
 -4567.566097 4567.569773 477420.3032
 0 0 -0
 6542.480069 2272.886739 477413.7631
 5106.712612 2909.532049 477427.8243
 3220.26765 3220.271208 477442.2803
 1099.800155 3336.605869 477451.0748
 -1099.800039 3336.605851 477451.0748
 -3220.267534 3220.271221 477442.2803
 -5106.712497 2909.532042 477427.8243
 -6542.479953 2272.886741 477413.7631
 6627.081433 860.9522522 477417.2304
 5268.00076 1006.059763 477433.8774
 3336.602289 1099.80373 477451.0748
 1139.26708 1139.270647 477461.2816
 -1139.266963 1139.270654 477461.2816
 -3336.602173 1099.803724 477451.0748
 -5268.000643 1006.059766 477433.8774
 -6627.081318 860.9522513 477417.2304
 6627.081431 -860.9450186 477417.2304
 5268.000757 -1006.052523 477433.8774
 3336.602291 -1099.796469 477451.0748
 1139.267077 -1139.263393 477461.2816
 -1139.266961 -1139.263385 477461.2816
 -3336.602174 -1099.796476 477451.0748
 -5268.000641 -1006.052519 477433.8774
 -6627.081315 -860.9450197 477417.2304
 6542.480062 -2272.879518 477413.7632
 5106.712613 -2909.524804 477427.8243
 3220.267648 -3220.263972 477442.2804
 1099.800157 -3336.598595 477451.0748
 -1099.800041 -3336.598614 477451.0748
 -3220.267532 -3220.263957 477442.2804
 -5106.712496 -2909.524811 477427.8243
 -6542.479946 -2272.879516 477413.7632
 0 0 0
 4567.566211 -4567.562539 477420.3033
 2909.528483 -5106.708928 477427.8244
 1006.056201 -5267.997086 477433.8775
 -1006.056085 -5267.997068 477433.8775
 -2909.528367 -5106.708941 477427.8244
 -4567.566095 -4567.562535 477420.3033
 0 0 -0
 0 0 0
 0 0 0
 2272.883183 -6542.476392 477413.7632
 860.9486917 -6627.077754 477417.2304
 -860.9485757 -6627.077762 477417.2304
 -2272.883068 -6542.476388 477413.7632
 0 0 -0
 0 0 -0
 0 0 0
 0 0 0
 1893.105669 5598.087699 477427.4278
 734.0598279 5676.542296 477429.6904
 -734.0597153 5676.542313 477429.6904
 -1893.105557 5598.087689 477427.4278
 0 0 -0
 0 0 -0
 0 0 0
 3893.783805 3893.787348 477432.2446
 2504.621186 4436.022361 477436.8229
 875.8442929 4615.864174 477440.8843
 -875.8441803 4615.864128 477440.8843
 -2504.621073 4436.022394 477436.8229
 -3893.783692 3893.787338 477432.2446
 0 0 -0
 5598.084158 1893.109201 477427.4279
 4436.018841 2504.624709 477436.8229
 2834.96981 2834.97338 477447.1669
 975.2711956 2965.0892 477453.7971
 -975.2710823 2965.089247 477453.7971
 -2834.969698 2834.973344 477447.1669
 -4436.018728 2504.624727 477436.8229
 -5598.084045 1893.109197 477427.4279
 5676.53877 734.0633591 477429.6905
 4615.860604 875.8478457 477440.8843
 2965.085683 975.2747259 477453.7971
 1018.965455 1018.969021 477461.8254
 -1018.965342 1018.969003 477461.8254
 -2965.085569 975.2747402 477453.7971
 -4615.860493 875.8478377 477440.8843
 -5676.538657 734.0633612 477429.6905
 5676.538764 -734.056176 477429.6905
 4615.86061 -875.8406403 477440.8843
 2965.085673 -975.2675353 477453.7972
 1018.965466 -1018.961787 477461.8254
 -1018.965352 -1018.961811 477461.8254
 -2965.085561 -975.2675169 477453.7972
 -4615.860496 -875.8406509 477440.8843
 -5676.538652 -734.0561729 477429.6905
 5598.084151 -1893.10202 477427.4279
 4436.018835 -2504.617538 477436.823
 2834.969818 -2834.96614 477447.1669
 975.2711861 -2965.082041 477453.7972
 -975.2710737 -2965.08199 477453.7972
 -2834.969704 -2834.966179 477447.1669
 -4436.018723 -2504.617518 477436.823
 -5598.084038 -1893.102025 477427.4279
 0 0 0
 3893.783804 -3893.780149 477432.2446
 2504.621179 -4436.015199 477436.823
 875.8442979 -4615.856928 477440.8844
 -875.8441849 -4615.856977 477440.8844
 -2504.621067 -4436.015165 477436.823
 -3893.783691 -3893.78016 477432.2446
 0 0 -0
 0 0 0
 0 0 0
 1893.105663 -5598.080498 477427.4279
 734.0598229 -5676.535126 477429.6905
 -734.0597104 -5676.535107 477429.6905
 -1893.10555 -5598.080508 477427.4279
 0 0 -0
 0 0 -0
 0 0 0
 0 0 0
 1486.672728 4480.436809 477440.6631
 581.0732564 4546.127717 477442.0032
 -581.0731501 4546.127695 477442.0032
 -1486.672621 4480.436821 477440.6631
 0 0 -0
 0 0 -0
 0 0 0
 3106.858902 3106.862398 477443.7832
 2003.435651 3573.46173 477446.4241
 704.2972316 3739.003049 477448.8403
 -704.297125 3739.003105 477448.8403
 -2003.435545 3573.46169 477446.4241
 -3106.858795 3106.862411 477443.7832
 0 0 -0
 4480.433311 1486.67622 477440.6631
 3573.458194 2003.439177 477446.4241
 2302.988759 2302.992237 477452.8917
 796.6773139 2427.901083 477457.1624
 -796.6772076 2427.901025 477457.1624
 -2302.988652 2302.992281 477452.8917
 -3573.458088 2003.439154 477446.4241
 -4480.433204 1486.676225 477440.6631
 4546.124197 581.0767655 477442.0032
 3738.999574 704.3007242 477448.8403
 2427.897527 796.6808519 477457.1624
 839.3396973 839.3431893 477462.5245
 -839.33959 839.3432114 477462.5245
 -2427.897422 796.6808347 477457.1624
 -3738.999466 704.3007338 477448.8403
 -4546.124091 581.0767628 477442.0032
 4546.124198 -581.069645 477442.0032
 3738.999559 -704.2936105 477448.8403
 2427.897547 -796.6736961 477457.1624
 839.3396738 -839.3360743 477462.5245
 -839.3395678 -839.3360446 477462.5245
 -2427.897439 -796.6737196 477457.1624
 -3738.999454 -704.2935969 477448.8403
 -4546.124091 -581.0696489 477442.0032
 4480.433299 -1486.669116 477440.6631
 3573.458201 -2003.432031 477446.4242
 2302.988742 -2302.985152 477452.8917
 796.6773329 -2427.893885 477457.1624
 -796.6772256 -2427.893949 477457.1624
 -2302.988637 -2302.985103 477452.8917
 -3573.458094 -2003.432057 477446.4242
 -4480.433193 -1486.66911 477440.6632
 0 0 0
 3106.858894 -3106.85529 477443.7833
 2003.435658 -3573.454561 477446.4242
 704.2972182 -3738.995977 477448.8404
 -704.2971121 -3738.995917 477448.8404
 -2003.435551 -3573.454604 477446.4242
 -3106.858788 -3106.855276 477443.7833
 0 0 -0
 0 0 0
 0 0 0
 1486.672716 -4480.429694 477440.6632
 581.0732569 -4546.120572 477442.0032
 -581.0731504 -4546.120595 477442.0032
 -1486.67261 -4480.429682 477440.6632
 0 0 -0
 0 0 -0
 0 0 0
 0 0 0
 1129.471503 3447.49124 477450.2177
 442.4820109 3498.645597 477450.9765
 -442.4819134 3498.645614 477450.9765
 -1129.471405 3447.49123 477450.2177
 0 0 -0
 0 0 -0
 0 0 0
 2383.871666 2383.875145 477452.0977
 1536.822549 2754.293334 477453.5824
 541.1403861 2889.700391 477454.9488
 -541.1402885 2889.700345 477454.9488
 -1536.822451 2754.293366 477453.5824
 -2383.871568 2383.875136 477452.0977
 0 0 -0
 3447.48776 1129.47497 477450.2177
 2754.289883 1536.826002 477453.5824
 1781.175669 1781.179179 477457.3553
 617.8342892 1886.447615 477459.8736
 -617.8341914 1886.447661 477459.8736
 -1781.175572 1781.179143 477457.3553
 -2754.289785 1536.82602 477453.5824
 -3447.487663 1129.474966 477450.2177
 3498.642135 442.4854749 477450.9765
 2889.69688 541.1438764 477454.9488
 1886.444175 617.8377427 477459.8736
 654.3819422 654.3854509 477463.1031
 -654.3818448 654.3854343 477463.1031
 -1886.444076 617.8377556 477459.8736
 -2889.696784 541.1438693 477454.9488
 -3498.642037 442.4854768 477450.9765
 3498.642124 -442.4784375 477450.9766
 2889.696899 -541.1368199 477454.9488
 1886.444144 -617.8307046 477459.8736
 654.3819779 -654.3783699 477463.1031
 -654.3818794 -654.3783955 477463.1031
 -1886.444048 -617.8306843 477459.8736
 -2889.6968 -541.1368317 477454.9488
 -3498.642027 -442.478434 477450.9766
 3447.487754 -1129.467932 477450.2177
 2754.289865 -1536.818978 477453.5824
 1781.175692 -1781.172087 477457.3553
 617.8342593 -1886.440608 477459.8736
 -617.8341622 -1886.440554 477459.8736
 -1781.175593 -1781.172128 477457.3553
 -2754.289769 -1536.818956 477453.5824
 -3447.487656 -1129.467937 477450.2177
 0 0 0
 2383.871666 -2383.868089 477452.0977
 1536.822531 -2754.286316 477453.5824
 541.1404031 -2889.69329 477454.9488
 -541.1403051 -2889.693339 477454.9488
 -1536.822435 -2754.286281 477453.5824
 -2383.871568 -2383.8681 477452.0977
 0 0 -0
 0 0 0
 0 0 0
 1129.471496 -3447.484176 477450.2178
 442.482001 -3498.638566 477450.9766
 -442.4819036 -3498.638547 477450.9766
 -1129.471398 -3447.484187 477450.2178
 0 0 -0
 0 0 -0
 0 0 0
 0 0 0
 836.9606824 2576.750674 477456.3133
 328.0831691 2614.736528 477456.7277
 -328.0830825 2614.736522 477456.7277
 -836.9605961 2576.750677 477456.3133
 0 0 -0
 0 0 -0
 0 0 0
 1777.323893 1777.327327 477457.384
 1144.602695 2058.082571 477458.1924
 403.0989912 2161.782741 477458.9359
 -403.0989049 2161.782757 477458.9359
 -1144.602608 2058.08256 477458.1924
 -1777.323806 1777.32733 477457.384
 0 0 -0
 2576.747236 836.9641096 477456.3134
 2058.079114 1144.606144 477458.1924
 1331.95436 1331.957783 477460.2843
 462.4244306 1413.884487 477461.6826
 -462.4243437 1413.884472 477461.6826
 -1331.954274 1331.957795 477460.2843
 -2058.079028 1144.606138 477458.1924
 -2576.74715 836.9641107 477456.3134
 2614.733079 328.0866093 477456.7277
 2161.779316 403.1024198 477458.9359
 1413.881016 462.4278934 477461.6826
 491.1458896 491.1493136 477463.4948
 -491.1458029 491.1493172 477463.4948
 -1413.88093 462.4278907 477461.6826
 -2161.779229 403.102421 477458.9359
 -2614.732993 328.086609 477456.7277
 2614.733082 -328.0796446 477456.7277
 2161.779292 -403.0954547 477458.936
 1413.88105 -462.4209109 477461.6827
 491.1458484 -491.1423421 477463.4948
 -491.1457621 -491.1423293 477463.4948
 -1413.880963 -462.4209211 477461.6827
 -2161.779206 -403.0954487 477458.936
 -2614.732995 -328.0796464 477456.7277
 2576.747221 -836.9571543 477456.3134
 2058.079127 -1144.599169 477458.1924
 1331.95433 -1331.950824 477460.2843
 462.4244636 -1413.877489 477461.6827
 -462.4243764 -1413.877512 477461.6827
 -1331.954245 -1331.950806 477460.2843
 -2058.079039 -1144.599178 477458.1924
 -2576.747135 -836.957152 477456.3134
 0 0 0
 1777.323881 -1777.320361 477457.384
 1144.602706 -2058.075581 477458.1924
 403.0989681 -2161.775783 477458.936
 -403.098882 -2161.775762 477458.936
 -1144.602619 -2058.075596 477458.1924
 -1777.323795 -1777.320356 477457.384
 0 0 -0
 0 0 0
 0 0 0
 836.9606673 -2576.743698 477456.3134
 328.0831718 -2614.729546 477456.7277
 -328.0830852 -2614.729554 477456.7277
 -836.9605812 -2576.743693 477456.3134
 0 0 -0
 0 0 -0
 0 0 0
 0 0 0
 604.816316 1873.006384 477459.9432
 237.1017681 1900.232714 477460.1598
 -237.1016948 1900.232706 477460.1598
 -604.8162424 1873.006388 477459.9432
 0 0 -0
 0 0 -0
 0 0 0
 1289.223849 1289.227258 477460.5189
 829.3406284 1494.626482 477460.9404
 291.9773386 1570.615215 477461.3275
 -291.9772646 1570.615235 477461.3275
 -829.3405559 1494.626468 477460.9404
 -1289.223775 1289.227262 477460.5189
 0 0 -0
 1873.002972 604.8197172 477459.9432
 1494.623066 829.3440374 477460.9404
 966.9259623 966.9293767 477462.0418
 335.6999278 1027.431229 477462.7765
 -335.6998548 1027.431208 477462.7765
 -966.9258874 966.9293934 477462.0418
 -1494.622994 829.3440285 477460.9404
 -1873.002898 604.8197191 477459.9432
 1900.229298 237.1051747 477460.1598
 1570.611801 291.9807532 477461.3275
 1027.427815 335.7033357 477462.7766
 357.0107333 357.0141597 477463.7331
 -357.0106593 357.0141712 477463.7331
 -1027.427743 335.7033265 477462.7766
 -1570.611727 291.9807586 477461.3275
 -1900.229225 237.105173 477460.1598
 1900.229288 -237.0982807 477460.1598
 1570.611817 -291.9738588 477461.3275
 1027.427787 -335.6964265 477462.7766
 357.0107667 -357.0072606 477463.7331
 -357.010693 -357.0072563 477463.7331
 -1027.427713 -335.6964297 477462.7766
 -1570.611743 -291.9738572 477461.3275
 -1900.229215 -237.098281 477460.1598
 1873.002964 -604.8128317 477459.9432
 1494.623049 -829.3371341 477460.9404
 966.9259822 -966.9224867 477462.0419
 335.6998994 -1027.424304 477462.7766
 -335.6998261 -1027.42432 477462.7766
 -966.925908 -966.9224749 477462.0419
 -1494.622976 -829.3371401 477460.9404
 -1873.00289 -604.8128303 477459.9432
 0 0 0
 1289.223846 -1289.220361 477460.5189
 829.3406109 -1494.619564 477460.9404
 291.9773539 -1570.608326 477461.3275
 -291.9772801 -1570.60831 477461.3275
 -829.340538 -1494.619575 477460.9404
 -1289.223772 -1289.220358 477460.5189
 0 0 -0
 0 0 0
 0 0 0
 604.8163078 -1872.999476 477459.9432
 237.1017581 -1900.2258 477460.1598
 -237.1016847 -1900.225807 477460.1598
 -604.8162342 -1872.999473 477459.9432
 0 0 -0
 0 0 -0
 0 0 0
 0 0 0
 422.0932683 1312.336719 477462.0099
 165.457383 1331.126021 477462.1158
 -165.4573238 1331.126039 477462.1158
 -422.0932098 1312.336709 477462.0099
 0 0 -0
 0 0 -0
 0 0 0
 901.8354739 901.8388661 477462.2966
 579.5922319 1046.1899 477462.502
 203.9652086 1099.501857 477462.6905
 -203.9651503 1099.501809 477462.6905
 -579.5921717 1046.189935 477462.502
 -901.8354156 901.8388555 477462.2966
 0 0 -0
 1312.333323 422.0966488 477462.0099
 1046.186526 579.5956077 477462.502
 676.3254619 676.3288704 477463.042
 234.73588 718.9223962 477463.4011
 -234.7358201 718.9224469 477463.4011
 -676.3254049 676.3288315 477463.042
 -1046.186465 579.5956279 477462.502
 -1312.333265 422.0966443 477462.0099
 1331.122637 165.460766 477462.1158
 1099.498443 203.9686012 477462.6905
 718.9190245 234.7392643 477463.4011
 249.7682405 249.7716385 477463.8693
 -249.7681822 249.7716163 477463.8693
 -718.9189639 234.7392818 477463.4011
 -1099.498385 203.9685912 477462.6905
 -1331.122578 165.4607688 477462.1158
 1331.122635 -165.453936 477462.1158
 1099.498434 -203.9617555 477462.6905
 718.9190352 -234.7324389 477463.4011
 249.7682253 -249.7647728 477463.8693
 -249.768166 -249.7647929 477463.8693
 -718.9189768 -234.7324233 477463.4011
 -1099.498374 -203.9617643 477462.6905
 -1331.122576 -165.4539335 477462.1158
 1312.33331 -422.0898178 477462.0099
 1046.186526 -579.5887912 477462.5021
 676.3254502 -676.3219905 477463.042
 234.7358912 -718.9156004 477463.4011
 -234.7358321 -718.9155515 477463.4011
 -676.3253914 -676.3220279 477463.042
 -1046.186467 -579.5887718 477462.5021
 -1312.333251 -422.0898219 477462.0099
 0 0 0
 901.8354645 -901.8320156 477462.2966
 579.5922322 -1046.183087 477462.5021
 203.9651989 -1099.494963 477462.6905
 -203.9651402 -1099.49501 477462.6905
 -579.5921729 -1046.183054 477462.5021
 -901.8354057 -901.8320258 477462.2966
 0 0 -0
 0 0 0
 0 0 0
 422.0932552 -1312.329857 477462.0099
 165.4573809 -1331.119192 477462.1158
 -165.4573219 -1331.119173 477462.1158
 -422.0931965 -1312.329867 477462.0099
 0 0 -0
 0 0 -0
 0 0 0
 0 0 0
 276.4510134 861.7446844 477463.1423
 108.3553531 873.9237962 477463.1879
 -108.3553103 873.923774 477463.1879
 -276.45097 861.7446966 477463.1423
 0 0 -0
 0 0 -0
 0 0 0
 591.4907609 591.4941242 477463.2672
 379.8722182 686.4146317 477463.3555
 133.6322162 721.3841822 477463.4363
 -133.6321723 721.3842395 477463.4363
 -379.8721766 686.414591 477463.3555
 -591.4907171 591.4941367 477463.2672
 0 0 -0
 861.7413162 276.4543719 477463.1423
 686.411233 379.8756035 477463.3555
 443.4323636 443.4357098 477463.5882
 153.8495385 471.4140795 477463.7425
 -153.8494964 471.4140203 477463.7425
 -443.4323183 443.435755 477463.5882
 -686.4111917 379.8755801 477463.3555
 -861.7412726 276.4543769 477463.1423
 873.9204077 108.3587247 477463.1879
 721.3808373 133.635578 477463.4363
 471.4106688 153.8529279 477463.7425
 163.7300907 163.7334504 477463.9439
 -163.7300467 163.7334733 477463.9439
 -471.4106276 153.8529101 477463.7425
 -721.3807924 133.635588 477463.4363
 -873.9203653 108.3587219 477463.1879
 873.9204049 -108.3519367 477463.1879
 721.38083 -133.6288012 477463.4363
 471.4106752 -153.8461145 477463.7425
 163.7300827 -163.7266808 477463.9439
 -163.7300399 -163.7266511 477463.9439
 -471.4106311 -153.8461379 477463.7425
 -721.3807877 -133.6287878 477463.4363
 -873.9203615 -108.3519406 477463.1879
 861.7413033 -276.4475981 477463.1423
 686.4112317 -379.8687914 477463.3555
 443.4323549 -443.4289626 477463.5882
 153.8495442 -471.4072209 477463.7425
 -153.8495011 -471.4072856 477463.7425
 -443.4323117 -443.4289129 477463.5882
 -686.4111885 -379.8688173 477463.3555
 -861.7412602 -276.4475923 477463.1423
 0 0 0
 591.4907517 -591.4873443 477463.2673
 379.8722166 -686.4077917 477463.3555
 133.6322096 -721.3774422 477463.4364
 -133.6321663 -721.3773813 477463.4364
 -379.8721739 -686.407835 477463.3555
 -591.4907085 -591.4873308 477463.2673
 0 0 -0
 0 0 0
 0 0 0
 276.4510005 -861.7378916 477463.1423
 108.35535 -873.9169733 477463.1879
 -108.355307 -873.9169966 477463.1879
 -276.4509574 -861.7378786 477463.1423
 0 0 -0
 0 0 -0
 0 0 0
 0 0 0
 156.1351094 487.4560412 477463.7256
 61.19198522 494.2821771 477463.7402
 -61.19195865 494.282194 477463.7402
 -156.1350834 487.4560319 477463.7256
 0 0 -0
 0 0 -0
 0 0 0
 334.3284374 334.3318065 477463.7659
 214.6165086 388.0568831 477463.7941
 75.47870007 407.8093872 477463.8199
 -75.47867443 407.8093443 477463.8199
 -214.6164808 388.0569135 477463.7941
 -334.3284117 334.3317973 477463.7659
 0 0 -0
 487.4526682 156.1384661 477463.7256
 388.0535374 214.6198563 477463.7941
 250.5597978 250.5631888 477463.8685
 86.90781197 266.3744611 477463.9178
 -86.90778465 266.3745034 477463.9178
 -250.5597736 250.5631567 477463.8685
 -388.0535093 214.6198725 477463.7941
 -487.4526423 156.1384626 477463.7256
 494.2788199 61.1953426 477463.7402
 407.80599 75.48207198 477463.8199
 266.3711256 86.91116274 477463.9178
 92.49226913 92.4956553 477463.9821
 -92.49224349 92.4956436 477463.9821
 -266.3710975 86.91117158 477463.9178
 -407.8059652 75.48206742 477463.8199
 -494.278793 61.19534369 477463.7402
 494.2788106 -61.18859418 477463.7402
 407.8060021 -75.47530803 477463.8199
 266.3711026 -86.90442038 477463.9178
 92.49229454 -92.48887241 477463.9821
 -92.49226791 -92.48890334 477463.9821
 -266.3710769 -86.90439575 477463.9178
 -407.8059751 -75.47532249 477463.8199
 -494.2787845 -61.18858986 477463.7402
 487.4526589 -156.1317161 477463.7256
 388.0535213 -214.6131219 477463.7941
 250.5598129 -250.5563901 477463.8685
 86.90778954 -266.3677483 477463.9178
 -86.90776301 -266.3676901 477463.9178
 -250.5597869 -250.556435 477463.8685
 -388.0534948 -214.6130982 477463.7941
 -487.4526326 -156.1317215 477463.7256
 0 0 0
 334.3284332 -334.3250368 477463.7659
 214.6164927 -388.0501521 477463.7941
 75.47871155 -407.8025739 477463.8199
 -75.47868546 -407.802627 477463.8199
 -214.6164659 -388.0501142 477463.7941
 -334.328407 -334.3250486 477463.7659
 0 0 -0
 0 0 0
 0 0 0
 156.1351 -487.4492589 477463.7256
 61.19197609 -494.2754285 477463.7402
 -61.19194966 -494.2754083 477463.7402
 -156.1350739 -487.44927 477463.7256
 0 0 -0
 0 0 -0
 0 0 0
 0 0 0
 50.45302099 157.6314343 477463.9713
 19.77241805 159.8283968 477463.9728
 -19.7724092 159.8283927 477463.9728
 -50.45301165 157.6314365 477463.9713
 0 0 -0
 0 0 -0
 0 0 0
 108.0720098 108.0753689 477463.9755
 69.35932673 125.4522637 477463.9785
 24.38984445 131.8339139 477463.9812
 -24.3898348 131.8339232 477463.9812
 -69.35931887 125.4522574 477463.9785
 -108.0720002 108.0753705 477463.9755
 0 0 -0
 157.6280706 50.45637289 477463.9713
 125.448888 69.36269336 477463.9785
 80.97866907 80.98202227 477463.9863
 28.08363022 86.09108874 477463.9914
 -28.0836219 86.09108374 477463.9914
 -80.97865838 80.98202555 477463.9863
 -125.4488802 69.36269238 477463.9785
 -157.6280611 50.45637288 477463.9713
 159.825024 19.77577861 477463.9728
 131.8305598 24.39320306 477463.9812
 86.08770488 28.08700341 477463.9914
 29.8881009 29.8914557 477463.9981
 -29.88809138 29.89144666 477463.9981
 -86.08769687 28.08701116 477463.9914
 -131.8305498 24.39319777 477463.9812
 -159.8250153 19.77578047 477463.9728
 159.8250256 -19.76904472 477463.9728
 131.8305385 -24.38647051 477463.9812
 86.08773355 -28.08025645 477463.9914
 29.88806502 -29.88472073 477463.9981
 -29.88805589 -29.8846954 477463.9981
 -86.08772459 -28.08027699 477463.9914
 -131.8305294 -24.38645796 477463.9812
 -159.8250166 -19.76904864 477463.9728
 157.6280549 -50.44964716 477463.9713
 125.4488967 -69.35594975 477463.9785
 80.97864223 -80.97529487 477463.9863
 28.08365867 -86.08432498 477463.9914
 -28.08365002 -86.08435843 477463.9914
 -80.97863227 -80.9752687 477463.9863
 -125.4488883 -69.35596407 477463.9785
 -157.6280456 -50.44964377 477463.9713
 0 0 0
 108.0719967 -108.0686318 477463.9755
 69.35933546 -125.4455039 477463.9785
 24.38982345 -131.827185 477463.9812
 -24.38981399 -131.8271576 477463.9812
 -69.35932719 -125.4455236 477463.9785
 -108.0719873 -108.0686254 477463.9755
 0 0 -0
 0 0 0
 0 0 0
 50.45300532 -157.624684 477463.9713
 19.77241953 -159.8216407 477463.9728
 -19.77241062 -159.8216507 477463.9728
 -50.45299606 -157.6246784 477463.9713
 0 0 -0
 0 0 -0
 0 0 0
 0 0 0
 -50.45300853 -157.6246856 477463.9713
 -19.7724132 -159.8216412 477463.9728
 19.77240493 -159.8216526 477463.9728
 50.45299989 -157.6246792 477463.9713
 0 0 -0
 0 0 -0
 0 0 0
 -108.0720014 -108.0686335 477463.9755
 -69.35932111 -125.4455035 477463.9785
 -24.38984183 -131.8271883 477463.9812
 24.38983298 -131.8271566 477463.9812
 69.35931353 -125.4455265 477463.9785
 108.0719926 -108.068626 477463.9755
 0 0 -0
 -157.6280582 -50.44964875 477463.9713
 -125.448882 -69.35594935 477463.9785
 -80.97866636 -80.97529879 477463.9863
 -28.08362813 -86.08432278 477463.9914
 28.08362016 -86.08436302 477463.9914
 80.97865697 -80.97526714 477463.9863
 125.4488743 -69.35596689 477463.9785
 157.6280496 -50.44964454 477463.9713
 -159.8250188 -19.76904521 477463.9728
 -131.830558 -24.38647385 477463.9812
 -86.08770207 -28.08025427 477463.9914
 -29.88810239 -29.88472601 477463.9981
 29.88809387 -29.88469251 477463.9981
 86.08769382 -28.08028157 477463.9914
 131.8305495 -24.386457 477463.9812
 159.8250104 -19.76905054 477463.9728
 -159.8250303 19.77577671 477463.9728
 -131.8305391 24.39320403 477463.9812
 -86.08773668 28.08699883 477463.9914
 -29.88806169 29.89145857 477463.9981
 29.88805283 29.89144143 477463.9981
 86.08772922 28.08701329 477463.9914
 131.8305298 24.39319448 477463.9812
 159.8250222 19.77577996 477463.9728
 -157.6280663 50.45637212 477463.9713
 -125.4489032 69.36269055 477463.9785
 -80.97864212 80.98202379 477463.9863
 -28.08366295 86.09108422 477463.9914
 28.08365523 86.09108585 477463.9914
 80.97863213 80.9820217 477463.9863
 125.448896 69.36269274 477463.9785
 157.6280575 50.45637129 477463.9713
 0 0 0
 -108.0720039 108.0753683 477463.9755
 -69.35934237 125.4522609 477463.9785
 -24.38982274 131.8339148 477463.9812
 24.38981375 131.8339199 477463.9812
 69.35933509 125.4522578 477463.9785
 108.071995 108.0753688 477463.9755
 0 0 -0
 0 0 0
 0 0 0
 -50.45301658 157.6314335 477463.9713
 -19.77242479 159.828395 477463.9728
 19.77241656 159.8283922 477463.9728
 50.45300788 157.6314349 477463.9713
 0 0 -0
 0 0 -0
 0 0 0
 0 0 0
 -156.1350968 -487.4492612 477463.7256
 -61.19198078 -494.2754341 477463.7402
 61.19195498 -494.2754099 477463.7402
 156.1350712 -487.4492747 477463.7256
 0 0 -0
 0 0 -0
 0 0 0
 -334.3284284 -334.3250386 477463.7659
 -214.6165045 -388.0501603 477463.7941
 -75.47869523 -407.8025713 477463.8199
 75.47866979 -407.8026367 477463.8199
 214.6164782 -388.0501132 477463.7941
 334.3284029 -334.3250537 477463.7659
 0 0 -0
 -487.4526552 -156.1317185 477463.7256
 -388.0535341 -214.6131301 477463.7941
 -250.5597906 -250.5563857 477463.8685
 -86.90781636 -266.3677617 477463.9178
 86.90779043 -266.3676839 477463.9178
 250.5597652 -250.5564464 477463.8685
 388.0535082 -214.6130971 477463.7941
 487.4526295 -156.1317262 477463.7256
 -494.2788164 -61.18859978 477463.7402
 -407.8059829 -75.47530532 477463.8199
 -266.3711319 -86.90443377 477463.9178
 -92.49225845 -92.48886412 477463.9821
 92.49223248 -92.48891869 477463.9821
 266.3711067 -86.90438959 477463.9178
 407.8059566 -75.47533221 477463.8199
 494.2787909 -61.1885914 477463.7402
 -494.278813 61.19534108 477463.7402
 -407.80601 75.48206221 477463.8199
 -266.3710932 86.91116895 477463.9178
 -92.49230775 92.49563995 477463.9821
 92.49228272 92.49565182 477463.9821
 266.3710658 86.91115828 477463.9178
 407.8059858 75.48207004 477463.8199
 494.2787867 61.19533812 477463.7402
 -487.4526719 156.1384614 477463.7256
 -388.053521 214.6198573 477463.7941
 -250.5598253 250.5631775 477463.8685
 -86.90777707 266.3744672 477463.9178
 86.90775041 266.3744901 477463.9178
 250.5598016 250.563161 477463.8685
 388.0534935 214.6198644 477463.7941
 487.4526466 156.1384602 477463.7256
 0 0 0
 -334.328443 334.3318013 477463.7659
 -214.6164911 388.0568841 477463.7941
 -75.47872286 407.8093776 477463.8199
 75.47869783 407.8093469 477463.8199
 214.616464 388.0569053 477463.7941
 334.328418 334.3317954 477463.7659
 0 0 -0
 0 0 0
 0 0 0
 -156.1351135 487.4560365 477463.7256
 -61.19197716 494.2821755 477463.7402
 61.19195124 494.2821884 477463.7402
 156.1350882 487.4560295 477463.7256
 0 0 -0
 0 0 -0
 0 0 0
 0 0 0
 -276.4510028 -861.7378993 477463.1423
 -108.3553453 -873.9169759 477463.1879
 108.355303 -873.9170056 477463.1879
 276.4509603 -861.7378827 477463.1423
 0 0 -0
 0 0 -0
 0 0 0
 -591.4907553 -591.4873527 477463.2673
 -379.8722056 -686.4077902 477463.3555
 -133.6322234 -721.3774578 477463.4364
 133.6321808 -721.3773776 477463.4364
 379.8721635 -686.4078478 477463.3555
 591.4907127 -591.4873342 477463.2673
 0 0 -0
 -861.7413061 -276.4476058 477463.1423
 -686.4112193 -379.8687898 477463.3555
 -443.4323747 -443.4289809 477463.5882
 -153.8495192 -471.4072115 477463.7425
 153.8494768 -471.4073065 477463.7425
 443.432332 -443.4289067 477463.5882
 686.4111768 -379.8688301 477463.3555
 861.7412636 -276.4475964 477463.1423
 -873.9203988 -108.3519394 477463.1879
 -721.3808474 -133.6288168 477463.4363
 -471.4106471 -153.8461051 477463.7425
 -163.7301159 -163.726705 477463.9439
 163.7300737 -163.7266387 477463.9439
 471.4106037 -153.8461588 477463.7425
 721.3808057 -133.6287841 477463.4363
 873.920356 -108.3519495 477463.1879
 -873.9204137 108.3587157 477463.1879
 -721.3808175 133.6355818 477463.4363
 -471.4106993 153.852907 477463.7425
 -163.7300529 163.7334628 477463.9439
 163.7300096 163.7334491 477463.9439
 471.4106587 153.8529194 477463.7425
 721.3807733 133.6355725 477463.4363
 873.9203719 108.3587192 477463.1879
 -861.741312 276.4543679 477463.1423
 -686.4112484 379.8755906 477463.3555
 -443.4323361 443.435716 477463.5882
 -153.8495722 471.4140586 477463.7425
 153.8495307 471.4140296 477463.7425
 443.4322914 443.4357368 477463.5882
 686.4112078 379.8755816 477463.3555
 861.7412689 276.4543693 477463.1423
 0 0 0
 -591.4907547 591.4941209 477463.2672
 -379.872235 686.4146189 477463.3555
 -133.6321928 721.3841858 477463.4363
 133.6321496 721.384224 477463.4363
 379.872194 686.4145925 477463.3555
 591.4907115 591.4941282 477463.2672
 0 0 -0
 0 0 0
 0 0 0
 -276.4510086 861.7446803 477463.1423
 -108.3553606 873.9237873 477463.1879
 108.3553184 873.9237712 477463.1879
 276.4509658 861.7446889 477463.1423
 0 0 -0
 0 0 -0
 0 0 0
 0 0 0
 -422.0932524 -1312.329862 477462.0099
 -165.4573847 -1331.119204 477462.1158
 165.4573264 -1331.119178 477462.1158
 422.0931943 -1312.329877 477462.0099
 0 0 -0
 0 0 -0
 0 0 0
 -901.8354605 -901.8320203 477462.2966
 -579.5922421 -1046.183105 477462.5021
 -203.9651851 -1099.494959 477462.6905
 203.9651271 -1099.49503 477462.6905
 579.5921834 -1046.183053 477462.5021
 901.8354023 -901.8320369 477462.2966
 0 0 -0
 -1312.333307 -422.0898234 477462.0099
 -1046.186537 -579.5888084 477462.5021
 -676.3254309 -676.3219828 477463.042
 -234.7359141 -718.9156276 477463.4011
 234.7358556 -718.9155406 477463.4011
 676.3253729 -676.322051 477463.042
 1046.186478 -579.588771 477462.5021
 1312.333249 -422.0898322 477462.0099
 -1331.12264 -165.4539479 477462.1158
 -1099.498417 -203.9617513 477462.6905
 -718.9190606 -234.7324661 477463.4011
 -249.7681938 -249.7647577 477463.8693
 249.7681352 -249.7648238 477463.8693
 718.9190029 -234.7324124 477463.4011
 1099.498358 -203.9617842 477462.6905
 1331.122582 -165.4539376 477462.1158
 -1331.122631 165.4607619 477462.1158
 -1099.49846 203.9685812 477462.6905
 -718.9189958 234.7392753 477463.4011
 -249.7682746 249.7716075 477463.8693
 249.7682169 249.7716313 477463.8693
 718.9189358 234.7392547 477463.4011
 1099.498404 203.9685953 477462.6905
 1331.122572 165.4607569 477462.1158
 -1312.333327 422.0966386 477462.0099
 -1046.186511 579.5956085 477462.502
 -676.3254864 676.3288473 477463.042
 -234.7358487 718.9224071 477463.4011
 234.7357895 718.9224198 477463.4011
 676.32543 676.328839 477463.042
 1046.186451 579.5956108 477462.502
 1312.333269 422.0966386 477462.0099
 0 0 0
 -901.8354789 901.838855 477462.2966
 -579.5922161 1046.189901 477462.502
 -203.9652291 1099.501837 477462.6905
 203.9651714 1099.501813 477462.6905
 579.5921566 1046.189917 477462.502
 901.8354212 901.8388507 477462.2966
 0 0 -0
 0 0 0
 0 0 0
 -422.093272 1312.336709 477462.0099
 -165.4573756 1331.126017 477462.1158
 165.4573172 1331.126027 477462.1158
 422.0932141 1312.336703 477462.0099
 0 0 -0
 0 0 -0
 0 0 0
 0 0 0
 -604.8163101 -1872.999489 477459.9432
 -237.1017534 -1900.225806 477460.1598
 237.1016807 -1900.225821 477460.1598
 604.8162372 -1872.99948 477459.9432
 0 0 -0
 0 0 -0
 0 0 0
 -1289.22385 -1289.220375 477460.5189
 -829.3406002 -1494.619564 477460.9404