# OOMMF OVF 2.0
#
# Segment count: 1
#
# Begin: Segment
# Begin: Header
#
# Title: Oxs_MinDriver::Magnetization
# Desc: Oxs vector field output
# Desc:  MIF source file: F:/Bogdan/UNIC/2022/Master_degree/Samples/Cylinder11_7.mif
# Desc:  Iteration: 1600, State id: 7267
# Desc:  Stage: 3, Stage iteration: 65
# Desc:  Stage simulation time: 0 s
# Desc:  Total simulation time: -2 s
# meshunit: m
# meshtype: rectangular
# xbase: -2.0999999999999999e-08
# ybase: -2.0999999999999999e-08
# zbase: -8.9999999999999995e-09
# xnodes: 22
# ynodes: 22
# znodes: 10
# xstepsize: 2.0000000000000001e-09
# ystepsize: 2.0000000000000001e-09
# zstepsize: 2.0000000000000001e-09
# xmin: -2.1999999999999998e-08
# ymin: -2.1999999999999998e-08
# zmin: -1e-08
# xmax: 2.2000000000000005e-08
# ymax: 2.2000000000000005e-08
# zmax: 1e-08
# valuedim: 3
# valuelabels: Magnetization_x Magnetization_y Magnetization_z
# valueunits: A/m A/m A/m
#
# End: Header
#
# Begin: Data Text
 0 0 0
 0 0 0
 0 0 0
 0 0 0
 0 0 0
 0 0 0
 0 0 0
 0 0 0
 10916.80187 52892.03672 474399.7546
 7158.608685 52943.73763 474465.5796
 2453.113342 52980.34726 474509.1531
 -2453.109472 52980.34789 474509.153
 -7158.604851 52943.73948 474465.5795
 -10916.79811 52892.03943 474399.7544
 0 0 -0
 0 0 -0
 0 0 -0
 0 0 -0
 0 0 -0
 0 0 -0
 0 0 -0
 0 0 -0
 0 0 0
 0 0 0
 0 0 0
 0 0 0
 0 0 0
 26538.59961 47562.23794 474347.349
 23009.15155 47824.23885 474505.3134
 18312.60468 48210.04035 474670.7404
 12675.64881 49346.96345 474737.9029
 7640.264243 49560.86651 474823.3547
 2558.211491 49600.27329 474873.8145
 -2558.207679 49600.27403 474873.8145
 -7640.260491 49560.86863 474823.3545
 -12675.64513 49346.96698 474737.9026
 -18312.60119 48210.04551 474670.74
 -23009.14821 47824.24525 474505.3129
 -26538.59642 47562.24512 474347.3485
 0 0 -0
 0 0 -0
 0 0 -0
 0 0 -0
 0 0 -0
 0 0 0
 0 0 0
 0 0 0
 0 0 0
 32092.53125 42811.8418 474456.6228
 27999.65854 43967.12341 474610.1374
 23412.85446 44308.58285 474826.7674
 18404.27592 44503.67319 475029.0275
 13083.50486 44784.22276 475178.9837
 7839.975311 44851.2032 475288.0975
 2613.046011 44850.58999 475345.6299
 -2613.04235 44850.59077 475345.6298
 -7839.971671 44851.20562 475288.0974
 -13083.50135 44784.2267 475178.9835
 -18404.2725 44503.67869 475029.0271
 -23412.85124 44308.58966 474826.7669
 -27999.65545 43967.13125 474610.1368
 -32092.52835 42811.85053 474456.6222
 0 0 -0
 0 0 -0
 0 0 -0
 0 0 -0
 0 0 0
 0 0 0
 0 0 0
 37550.9151 37550.924 474501.5576
 33465.81098 38841.21754 474703.3501
 28694.60454 39388.60315 474970.5558
 23644.96701 39545.02338 475235.7078
 18437.58891 39572.53677 475463.9218
 13144.03701 39584.91345 475638.6656
 7871.468543 39552.28044 475757.8464
 2621.198045 39519.93678 475818.4267
 -2621.194586 39519.93768 475818.4267
 -7871.465159 39552.28304 475757.8462
 -13144.03365 39584.91776 475638.6653
 -18437.58574 39572.54266 475463.9214
 -23644.96392 39545.03066 475235.7073
 -28694.60167 39388.61163 474970.5553
 -33465.80825 38841.227 474703.3495
 -37550.9126 37550.93429 474501.557
 0 0 -0
 0 0 -0
 0 0 -0
 0 0 0
 0 0 0
 42811.83208 32092.53932 474456.6231
 38841.20802 33465.81965 474703.3503
 34085.13811 34085.1475 475024.5019
 28957.15933 34295.93569 475349.4956
 23688.84108 34294.13646 475641.2748
 18382.22972 34212.1292 475881.808
 13085.43736 34119.46168 476063.5514
 7828.697128 34035.73929 476184.9969
 2605.463172 33985.52646 476245.8051
 -2605.460023 33985.5274 476245.805
 -7828.693982 34035.74211 476184.9967
 -13085.43435 34119.4663 476063.5511
 -18382.22674 34212.13547 475881.8076
 -23688.83831 34294.14426 475641.2744
 -28957.15666 34295.94473 475349.4952
 -34085.13565 34085.15763 475024.5013
 -38841.20575 33465.8306 474703.3497
 -42811.83004 32092.55097 474456.6225
 0 0 -0
 0 0 -0
 0 0 0
 47562.2275 26538.60701 474347.3497
 43967.11309 27999.66643 474610.1378
 39388.5929 28694.61309 474970.5562
 34295.92541 28957.1687 475349.4958
 28979.55512 28979.56546 475701.8409
 23607.70907 28881.16451 476004.6488
 18262.91506 28741.47111 476248.1129
 12977.55891 28607.71601 476429.4836
 7755.869699 28503.86405 476549.3128
 2579.854583 28446.9854 476608.8382
 -2579.851775 28446.98639 476608.8382
 -7755.866961 28503.86705 476549.3126
 -12977.55617 28607.72087 476429.4834
 -18262.9125 28741.47778 476248.1126
 -23607.70655 28881.1727 476004.6485
 -28979.55281 28979.57507 475701.8405
 -34295.92322 28957.17936 475349.4953
 -39388.59091 28694.62467 474970.5556
 -43967.1113 27999.67862 474610.1373
 -47562.22595 26538.61966 474347.3491
 0 0 -0
 0 0 0
 47824.22787 23009.15899 474505.3141
 44308.57182 23412.8623 474826.768
 39545.01222 23644.97553 475235.7083
 34294.12519 23688.85047 475641.2752
 28881.15307 23607.71949 476004.649
 23463.97256 23463.98417 476309.5157
 18114.19412 23305.62397 476550.7267
 12853.75908 23164.61293 476728.4897
 7675.051165 23060.29102 476845.0355
 2551.852704 23004.93202 476902.6446
 -2551.850337 23004.93309 476902.6446
 -7675.048793 23060.29413 476845.0354
 -12853.75682 23164.61807 476728.4895
 -18114.19188 23305.6309 476550.7265
 -23463.97048 23463.99281 476309.5154
 -28881.15106 23607.72949 476004.6486
 -34294.12336 23688.86169 475641.2747
 -39545.01051 23644.98759 475235.7078
 -44308.57029 23412.87501 474826.7675
 -47824.22647 23009.17202 474505.3136
 0 0 -0
 0 0 0
 48210.02852 18312.61209 474670.7413
 44503.66121 18404.28375 475029.0283
 39572.52461 18437.59744 475463.9225
 34212.11678 18382.23915 475881.8085
 28741.45847 18262.92562 476248.1133
 23305.61106 18114.2059 476550.7269
 17965.63704 17965.65018 476787.5235
 12735.09358 17838.50862 476960.6654
 7599.10059 17746.62471 477073.5607
 2525.764744 17698.56748 477129.178
 -2525.762833 17698.56855 477129.178
 -7599.098729 17746.62798 477073.5606
 -12735.09172 17838.51391 476960.6652
 -17965.6353 17965.65743 476787.5233
 -23305.60934 18114.21481 476550.7267
 -28741.4569 18262.93605 476248.113
 -34212.11529 18382.25073 475881.8081
 -39572.52325 18437.60999 475463.9221
 -44503.65995 18404.29689 475029.028
 -48210.02736 18312.62558 474670.7409
 0 0 -0
 52892.02356 10916.80864 474399.7559
 49346.95052 12675.65602 474737.904
 44784.20972 13083.51264 475178.9848
 39584.90014 13144.04554 475638.6665
 34119.44807 13085.44688 476063.5521
 28607.70206 12977.56955 476429.4841
 23164.59867 12853.77103 476728.4901
 17838.49405 12735.10693 476960.6655
 12635.69453 12635.70933 477129.4891
 7536.22063 12564.79533 477239.1461
 2504.28127 12527.9861 477293.0436
 -2504.279886 12527.98724 477293.0435
 -7536.219243 12564.79866 477239.1461
 -12635.69321 12635.71481 477129.489
 -17838.49273 12735.11434 476960.6654
 -23164.59746 12853.78023 476728.4899
 -28607.70088 12977.58023 476429.4839
 -34119.44701 13085.45882 476063.5518
 -39584.89914 13144.0584 475638.6662
 -44784.20882 13083.52616 475178.9845
 -49346.94972 12675.66992 474737.9037
 -52892.02298 10916.82277 474399.7557
 52943.72394 7158.615488 474465.5811
 49560.85268 7640.271412 474823.356
 44851.18911 7839.983073 475288.0987
 39552.26599 7871.477118 475757.8474
 34035.72444 7828.706703 476184.9978
 28503.84879 7755.880454 476549.3135
 23060.27535 7675.063249 476845.036
 17746.60871 7599.114094 477073.561
 12564.77902 7536.235646 477239.1463
 7491.678942 7491.695471 477346.4366
 2489.112081 7468.669837 477399.0936
 -2489.111232 7468.670972 477399.0936
 -7491.678116 7491.698887 477346.4366
 -12564.77819 7536.241198 477239.1463
 -17746.60794 7599.121675 477073.5609
 -23060.27459 7675.072588 476845.0359
 -28503.84809 7755.891364 476549.3134
 -34035.72377 7828.71884 476184.9976
 -39552.26539 7871.490226 475757.8473
 -44851.18856 7839.996841 475288.0986
 -49560.85221 7640.28556 474823.3558
 -52943.72355 7158.629808 474465.5809
 52980.33282 2453.120191 474509.1546
 49600.25858 2558.218688 474873.816
 44850.57486 2613.053797 475345.6313
 39519.9212 2621.20667 475818.428
 33985.51037 2605.472806 476245.8062
 28446.96882 2579.865441 476608.8391
 23004.91498 2551.864878 476902.6454
 17698.55002 2525.77839 477129.1786
 12527.96832 2504.296409 477293.044
 7468.651813 2489.128753 477399.0938
 2481.285193 2481.303393 477451.105
 -2481.284912 2481.304558 477451.105
 -7468.65153 2489.132179 477399.0938
 -12527.96805 2504.302039 477293.0439
 -17698.54975 2525.786008 477129.1786
 -23004.91474 2551.874339 476902.6453
 -28446.96858 2579.87642 476608.8391
 -33985.51016 2605.485071 476245.8061
 -39519.92099 2621.219899 475818.4279
 -44850.57468 2613.06768 475345.6312
 -49600.25841 2558.232979 474873.816
 -52980.33268 2453.134624 474509.1546
 52980.33264 -2453.102558 474509.1547
 49600.2584 -2558.200443 474873.8162
 44850.57465 -2613.034491 475345.6314
 39519.92097 -2621.185924 475818.4281
 33985.51013 -2605.450292 476245.8063
 28446.96855 -2579.840882 476608.8393
 23004.91471 -2551.838056 476902.6455
 17698.54973 -2525.749144 477129.1788
 12527.96804 -2504.264668 477293.0441
 7468.651495 -2489.094485 477399.094
 2481.284942 -2481.26668 477451.1052
 -2481.285228 -2481.265535 477451.1052
 -7468.651776 -2489.091033 477399.094
 -12527.96832 -2504.259071 477293.0441
 -17698.54999 -2525.741485 477129.1788
 -23004.91497 -2551.828636 476902.6456
 -28446.96879 -2579.829874 476608.8393
 -33985.51035 -2605.438036 476245.8064
 -39519.92118 -2621.172707 475818.4282
 -44850.57483 -2613.020584 475345.6315
 -49600.25856 -2558.186173 474873.8162
 -52980.33278 -2453.088117 474509.1548
 52943.72346 -7158.597886 474465.5814
 49560.85214 -7640.253163 474823.3564
 44851.1885 -7839.963759 475288.0991
 39552.26531 -7871.456389 475757.8478
 34035.7237 -7828.684232 476184.9982
 28503.84801 -7755.855971 476549.314
 23060.27453 -7675.036525 476845.0365
 17746.60786 -7599.084987 477073.5615
 12564.77815 -7536.20404 477239.1468
 7491.678094 -7491.661397 477346.4372
 2489.111199 -7468.633325 477399.0942
 -2489.112044 -7468.632159 477399.0942
 -7491.678938 -7491.658015 477346.4372
 -12564.77895 -7536.198448 477239.1469
 -17746.60867 -7599.077451 477073.5616
 -23060.27526 -7675.027142 476845.0366
 -28503.84873 -7755.845094 476549.3141
 -34035.72434 -7828.672082 476184.9984
 -39552.26592 -7871.443273 475757.848
 -44851.18905 -7839.95001 475288.0993
 -49560.85262 -7640.238997 474823.3566
 -52943.72385 -7158.583572 474465.5816
 52892.02285 -10916.7911 474399.7564
 49346.94964 -12675.63769 474737.9046
 44784.2087 -13083.4933 475178.9854
 39584.89902 -13144.02483 475638.6671
 34119.44687 -13085.4245 476063.5528
 28607.70077 -12977.54521 476429.4849
 23164.59732 -12853.74451 476728.4908
 17838.49266 -12735.07806 476960.6664
 12635.69311 -12635.67805 477129.49
 7536.219201 -12564.76159 477239.147
 2504.279874 -12527.94998 477293.0445
 -2504.28127 -12527.94889 477293.0445
 -7536.220565 -12564.75822 477239.1471
 -12635.69448 -12635.67262 477129.4901
 -17838.49392 -12735.0706 476960.6665
 -23164.59859 -12853.73535 476728.491
 -28607.7019 -12977.53449 476429.4851
 -34119.44798 -13085.41257 476063.5531
 -39584.9 -13144.01197 475638.6674
 -44784.20962 -13083.47976 475178.9857
 -49346.95044 -12675.6238 474737.9049
 -52892.02343 -10916.77696 474399.7567
 0 0 0
 48210.02718 -18312.5934 474670.7422
 44503.65978 -18404.26429 475029.0292
 39572.52307 -18437.57678 475463.9234
 34212.11513 -18382.21687 475881.8095
 28741.45672 -18262.90148 476248.1143
 23305.60921 -18114.17965 476550.728
 17965.63515 -17965.62168 476787.5247
 12735.09164 -17838.47775 476960.6666
 7599.098652 -17746.5915 477073.5619
 2525.762815 -17698.53194 477129.1793
 -2525.764717 -17698.53082 477129.1794
 -7599.100549 -17746.58828 477073.562
 -12735.09346 -17838.4724 476960.6667
 -17965.63696 -17965.61449 476787.5249
 -23305.61086 -18114.17069 476550.7283
 -28741.45835 -18262.89109 476248.1146
 -34212.11657 -18382.20527 475881.8098
 -39572.52446 -18437.56425 475463.9238
 -44503.66102 -18404.25115 475029.0296
 -48210.02835 -18312.57992 474670.7426
 0 0 -0
 0 0 0
 47824.22615 -23009.14021 474505.3152
 44308.57001 -23412.84286 474826.7692
 39545.0103 -23644.95489 475235.7095
 34294.12314 -23688.82837 475641.2764
 28881.15088 -23607.69558 476004.6503
 23463.97029 -23463.95829 476309.5171
 18114.19175 -23305.5959 476550.7282
 12853.75669 -23164.58263 476728.4912
 7675.048736 -23060.25844 476845.0371
 2551.850307 -23004.89722 476902.6463
 -2551.85269 -23004.89619 476902.6463
 -7675.051072 -23060.25527 476845.0372
 -12853.75901 -23164.57754 476728.4914
 -18114.19392 -23305.58891 476550.7285
 -23463.97245 -23463.9497 476309.5174
 -28881.15282 -23607.68554 476004.6507
 -34294.12504 -23688.81718 475641.2768
 -39545.01197 -23644.94282 475235.7099
 -44308.57157 -23412.83014 474826.7696
 -47824.22754 -23009.12718 474505.3157
 0 0 -0
 0 0 0
 47562.22552 -26538.58831 474347.3509
 43967.11102 -27999.64695 474610.1392
 39388.59067 -28694.59254 474970.5576
 34295.92303 -28957.14669 475349.4973
 28979.55259 -28979.54184 475701.8425
 23607.70639 -28881.13898 476004.6505
 18262.91232 -28741.44359 476248.1147
 12977.55607 -28607.68633 476429.4855
 7755.866875 -28503.83223 476549.3147
 2579.851752 -28446.95146 476608.8403
 -2579.854548 -28446.95044 476608.8403
 -7755.869652 -28503.82926 476549.3149
 -12977.55875 -28607.68142 476429.4857
 -18262.91496 -28741.43696 476248.115
 -23607.70882 -28881.13074 476004.6509
 -28979.55498 -28979.53227 475701.843
 -34295.92516 -28957.136 475349.4978
 -39388.5927 -28694.58097 474970.5581
 -43967.11279 -27999.63475 474610.1397
 -47562.22708 -26538.57567 474347.3515
 0 0 -0
 0 0 0
 0 0 0
 42811.82977 -32092.51964 474456.6247
 38841.20556 -33465.79898 474703.3519
 34085.13544 -34085.1256 475024.5036
 28957.15647 -34295.91225 475349.4975
 23688.8381 -34294.11136 475641.2768
 18382.2266 -34212.10218 475881.81
 13085.43422 -34119.4327 476063.5536
 7828.69392 -34035.70828 476184.9991
 2605.459994 -33985.49345 476245.8074
 -2605.463157 -33985.49252 476245.8075
 -7828.697032 -34035.70545 476184.9993
 -13085.43728 -34119.4281 476063.5538
 -18382.22951 -34212.09589 475881.8104
 -23688.84094 -34294.10359 475641.2772
 -28957.15908 -34295.90319 475349.498
 -34085.13795 -34085.11549 475024.5042
 -38841.20781 -33465.78801 474703.3525
 -42811.83181 -32092.50799 474456.6253
 0 0 -0
 0 0 -0
 0 0 0
 0 0 0
 0 0 0
 37550.91239 -37550.90304 474501.5595
 33465.80807 -38841.19554 474703.3521
 28694.60144 -39388.5799 474970.5579
 23644.96374 -39544.99859 475235.71
 18437.58556 -39572.51031 475463.9241
 13144.03355 -39584.88513 475638.6681
 7871.465077 -39552.25024 475757.8489
 2621.194571 -39519.90476 475818.4294
 -2621.198022 -39519.90387 475818.4295
 -7871.468492 -39552.24763 475757.8491
 -13144.03687 -39584.88081 475638.6683
 -18437.58878 -39572.50443 475463.9245
 -23644.96677 -39544.9913 475235.7105
 -28694.60436 -39388.57142 474970.5585
 -33465.81077 -38841.18608 474703.3527
 -37550.9149 -37550.89275 474501.5601
 0 0 -0
 0 0 -0
 0 0 -0
 0 0 0
 0 0 0
 0 0 0
 0 0 0
 32092.52809 -42811.81952 474456.625
 27999.65519 -43967.10014 474610.1397
 23412.85098 -44308.5584 474826.7698
 18404.27235 -44503.6472 475029.0301
 13083.50124 -44784.19503 475178.9865
 7839.971627 -44851.17377 475288.1004
 2613.042315 -44850.55887 475345.6329
 -2613.045986 -44850.55807 475345.6329
 -7839.975249 -44851.17137 475288.1005
 -13083.50478 -44784.19108 475178.9867
 -18404.27574 -44503.6417 475029.0305
 -23412.85423 -44308.55159 474826.7703
 -27999.65825 -43967.0923 474610.1403
 -32092.531 -42811.81079 474456.6256
 0 0 -0
 0 0 -0
 0 0 -0
 0 0 -0
 0 0 0
 0 0 0
 0 0 0
 0 0 0
 0 0 0
 26538.59602 -47562.2145 474347.3516
 23009.14792 -47824.21458 474505.316
 18312.60103 -48210.01473 474670.7432
 12675.64506 -49346.93607 474737.9058
 7640.260416 -49560.83765 474823.3578
 2558.207667 -49600.243 474873.8177
 -2558.211476 -49600.24228 474873.8178
 -7640.264182 -49560.83552 474823.3579
 -12675.64873 -49346.93254 474737.9061
 -18312.60454 -48210.00957 474670.7436
 -23009.15124 -47824.20818 474505.3165
 -26538.59921 -47562.20732 474347.3521
 0 0 -0
 0 0 -0
 0 0 -0
 0 0 -0
 0 0 -0
 0 0 0
 0 0 0
 0 0 0
 0 0 0
 0 0 0
 0 0 0
 0 0 0
 0 0 0
 10916.79798 -52892.00902 474399.7578
 7158.604764 -52943.70909 474465.5829
 2453.109433 -52980.31753 474509.1564
 -2453.113307 -52980.31688 474509.1564
 -7158.608597 -52943.70725 474465.583
 -10916.80175 -52892.00631 474399.758
 0 0 -0
 0 0 -0
 0 0 -0
 0 0 -0
 0 0 -0
 0 0 -0
 0 0 -0
 0 0 -0
 0 0 0
 0 0 0
 0 0 0
 0 0 0
 0 0 0
 0 0 0
 0 0 0
 0 0 0
 9088.85341 45364.08479 475217.1755
 6109.489347 45416.41498 475259.8181
 2116.138053 45458.85972 475290.3169
 -2116.134163 45458.86038 475290.3168
 -6109.485511 45416.41681 475259.818
 -9088.849623 45364.08751 475217.1753
 0 0 -0
 0 0 -0
 0 0 -0
 0 0 -0
 0 0 -0
 0 0 -0
 0 0 -0
 0 0 -0
 0 0 0
 0 0 0
 0 0 0
 0 0 0
 0 0 0
 22757.58333 40710.06971 475180.654
 19981.53085 40992.37879 475281.2163
 15875.22423 41520.60548 475390.248
 10891.24931 42780.52791 475418.8452
 6612.16889 43121.80756 475466.7814
 2225.33247 43206.1796 475499.8898
 -2225.32866 43206.18027 475499.8898
 -6612.165089 43121.80973 475466.7813
 -10891.24566 42780.53138 475418.845
 -15875.22069 41520.61063 475390.2476
 -19981.52754 40992.38517 475281.2159
 -22757.58014 40710.07686 475180.6535
 0 0 -0
 0 0 -0
 0 0 -0
 0 0 -0
 0 0 -0
 0 0 0
 0 0 0
 0 0 0
 0 0 0
 27423.07953 36800.94996 475253.1284
 24191.80712 38041.5825 475330.9013
 20443.98713 38538.2952 475466.8385
 16123.26018 38872.48077 475605.7632
 11458.02818 39280.41347 475707.5089
 6879.387829 39445.47001 475782.0932
 2296.815226 39488.37508 475822.7235
 -2296.811532 39488.37594 475822.7234
 -6879.384243 39445.47235 475782.0931
 -11458.02457 39280.41744 475707.5086
 -16123.25685 38872.48621 475605.7629
 -20443.98384 38538.30197 475466.8381
 -24191.80409 38041.59031 475330.9009
 -27423.07662 36800.95865 475253.1279
 0 0 -0
 0 0 -0
 0 0 -0
 0 0 -0
 0 0 0
 0 0 0
 0 0 0
 32207.43153 32207.44033 475286.4751
 28940.51568 33657.88659 475396.1133
 25058.9885 34430.1247 475561.2315
 20796.55793 34749.64998 475743.4564
 16274.95445 34892.68918 475909.1272
 11619.0775 34993.29847 476038.168
 6965.615728 35023.2725 476126.7918
 2321.120077 35021.63793 476172.2047
 -2321.11664 35021.63877 476172.2047
 -6965.612251 35023.27513 476126.7917
 -11619.07425 34993.30273 476038.1678
 -16274.95115 34892.69502 475909.1269
 -20796.55496 34749.65725 475743.456
 -25058.98555 34430.1331 475561.231
 -28940.513 33657.89602 475396.1128
 -32207.42902 32207.45057 475286.4746
 0 0 -0
 0 0 -0
 0 0 -0
 0 0 0
 0 0 0
 36800.94032 27423.0875 475253.1287
 33657.8772 28940.52423 475396.1134
 29800.81701 29800.82631 475600.3505
 25493.30753 30200.4647 475825.4874
 20953.92341 30328.21391 476038.868
 16305.42907 30335.12698 476220.3107
 11624.34753 30305.40364 476359.4529
 6960.373094 30263.82683 476453.0672
 2317.42215 30234.68391 476500.1204
 -2317.418958 30234.68484 476500.1204
 -6960.370035 30263.82963 476453.0671
 -11624.34438 30305.4082 476359.4527
 -16305.42623 30335.13325 476220.3104
 -20953.92051 30328.22158 476038.8676
 -25493.30495 30200.47374 475825.487
 -29800.8145 29800.83632 475600.35
 -33657.87495 28940.53516 475396.1129
 -36800.9383 27423.09907 475253.1282
 0 0 -0
 0 0 -0
 0 0 0
 40710.05935 22757.59063 475180.6545
 38041.57231 24191.8149 475330.9018
 34430.11452 25058.99694 475561.2318
 30200.45456 25493.31678 475825.4876
 25647.43552 25647.44575 476084.3296
 20962.3648 25643.03937 476313.8515
 16249.83896 25569.67444 476501.8424
 11560.99436 25482.40168 476643.3278
 6913.916333 25408.90455 476737.3036
 2300.496884 25367.13815 476784.1098
 -2300.494103 25367.13919 476784.1097
 -6913.913494 25408.90747 476737.3035
 -11560.99176 25482.40658 476643.3276
 -16249.83625 25569.68097 476501.8421
 -20962.36241 25643.04759 476313.8511
 -25647.43312 25647.45519 476084.3292
 -30200.45243 25493.32745 475825.4872
 -34430.11251 25059.00838 475561.2313
 -38041.57054 24191.82705 475330.9013
 -40710.05782 22757.60319 475180.6541
 0 0 -0
 0 0 0
 40992.36793 19981.53818 475281.217
 38538.28424 20443.99487 475466.839
 34749.63899 20796.56635 475743.4568
 30328.20271 20953.93267 476038.8683
 25643.02806 20962.37513 476313.8516
 20885.53379 20885.54528 476549.5355
 16148.89458 20776.09629 476738.3332
 11470.03593 20669.79636 476878.4636
 6852.488002 20588.06012 476970.6977
 2278.914192 20543.90734 477016.3789
 -2278.911786 20543.90832 477016.3788
 -6852.48571 20588.06329 476970.6976
 -11470.03355 20669.80138 476878.4635
 -16148.89246 20776.10327 476738.3329
 -20885.5316 20885.55375 476549.5352
 -25643.02614 20962.38516 476313.8513
 -30328.20083 20953.94371 476038.8679
 -34749.63732 20796.57839 475743.4564
 -38538.28271 20444.00744 475466.8386
 -40992.36655 19981.55114 475281.2165
 0 0 -0
 0 0 0
 41520.59373 15875.23153 475390.2488
 38872.46892 16123.26791 475605.7639
 34892.67709 16274.96285 475909.1278
 30335.11472 16305.43842 476220.3112
 25569.66188 16249.84936 476501.8427
 20776.08352 16148.90626 476738.3333
 16035.88377 16035.89678 476925.1217
 11375.86891 15934.28148 477062.4273
 6791.003754 15859.06053 477152.2228
 2257.619478 15819.26709 477196.5269
 -2257.617587 15819.26824 477196.5268
 -6791.001818 15859.06369 477152.2228
 -11375.86715 15934.28681 477062.4272
 -16035.88192 16035.90389 476925.1216
 -20776.0819 16148.9152 476738.3331
 -25569.66024 16249.85962 476501.8424
 -30335.11328 16305.45 476220.3109
 -34892.67571 16274.97523 475909.1275
 -38872.46769 16123.28099 475605.7636
 -41520.59257 15875.24492 475390.2484
 0 0 -0
 45364.0717 9088.860076 475217.1766
 42780.51508 10891.25642 475418.8462
 39280.40053 11458.03584 475707.5098
 34993.28531 11619.08595 476038.1688
 30305.39013 11624.3569 476359.4535
 25482.38789 11561.00492 476643.3283
 20669.78221 11470.04774 476878.464
 15934.26706 11375.88213 477062.4275
 11294.1617 11294.17638 477196.7674
 6738.589598 11234.84263 477284.235
 2239.605552 11203.78063 477327.2785
 -2239.604145 11203.7817 477327.2784
 -6738.588258 11234.846 477284.235
 -11294.1603 11294.18176 477196.7673
 -15934.26582 11375.88956 477062.4274
 -20669.78092 11470.0568 476878.4638
 -25482.38677 11561.01559 476643.3281
 -30305.38902 11624.36869 476359.4533
 -34993.28434 11619.09875 476038.1685
 -39280.39962 11458.04923 475707.5095
 -42780.5143 10891.27022 475418.846
 -45364.07113 9088.874107 475217.1764
 45416.40137 6109.496047 475259.8193
 43121.79386 6612.175958 475466.7826
 39445.45603 6879.395488 475782.0943
 35023.25817 6965.624186 476126.7927
 30263.81211 6960.382557 476453.068
 25408.88941 6913.926977 476737.3042
 20588.04461 6852.499953 476970.6982
 15859.04464 6791.017152 477152.2232
 11234.82647 6738.604465 477284.2352
 6700.907207 6700.923594 477369.9475
 2226.712422 6681.305309 477412.0581
 -2226.711583 6681.306474 477412.0581
 -6700.906345 6700.926946 477369.9474
 -11234.82569 6738.610026 477284.2351
 -15859.04381 6791.024617 477152.2231
 -20588.0439 6852.509293 476970.6981
 -25408.88867 6913.937735 476737.3041
 -30263.81148 6960.394648 476453.0679
 -35023.25754 6965.637167 476126.7926
 -39445.45551 6879.409145 475782.0941
 -43121.79337 6612.190001 475466.7824
 -45416.40099 6109.510257 475259.8192
 45458.84537 2116.144815 475290.3182
 43206.16497 2225.339546 475499.8911
 39488.3601 2296.822932 475822.7247
 35021.62245 2321.128562 476172.2058
 30234.66796 2317.431715 476500.1214
 25367.12171 2300.507577 476784.1106
 20543.89043 2278.926293 477016.3795
 15819.24981 2257.632955 477196.5274
 11203.76299 2239.62058 477327.2788
 6681.287407 2226.728969 477412.0583
 2220.015422 2220.033437 477453.6776
 -2220.015134 2220.034565 477453.6776
 -6681.287136 2226.732408 477412.0582
 -11203.7627 2239.626117 477327.2788
 -15819.24956 2257.640587 477196.5273
 -20543.89016 2278.935607 477016.3795
 -25367.1215 2300.518536 476784.1105
 -30234.66772 2317.443848 476500.1213
 -35021.62227 2321.141684 476172.2058
 -39488.3599 2296.836723 475822.7246
 -43206.16483 2225.353697 475499.8911
 -45458.84523 2116.159151 475290.3182
 45458.84519 -2116.127351 475290.3183
 43206.16478 -2225.321489 475499.8912
 39488.35989 -2296.803823 475822.7248
 35021.62224 -2321.108022 476172.206
 30234.66768 -2317.409414 476500.1215
 25367.12148 -2300.483242 476784.1107
 20543.89012 -2278.899705 477016.3797
 15819.24954 -2257.603961 477196.5275
 11203.76266 -2239.589089 477327.279
 6681.287179 -2226.694981 477412.0584
 2220.015053 -2219.997015 477453.6778
 -2220.015338 -2219.995836 477453.6778
 -6681.287466 -2226.691609 477412.0584
 -11203.76293 -2239.583458 477327.279
 -15819.24982 -2257.596449 477196.5275
 -20543.89037 -2278.890265 477016.3797
 -25367.12172 -2300.472385 476784.1107
 -30234.66791 -2317.39723 476500.1215
 -35021.62243 -2321.094896 476172.206
 -39488.36009 -2296.790071 475822.7248
 -43206.16493 -2225.307298 475499.8913
 -45458.84534 -2116.113031 475290.3184
 45416.40087 -6109.478616 475259.8196
 43121.79331 -6612.157889 475466.7829
 39445.45542 -6879.376378 475782.0946
 35023.25748 -6965.603656 476126.7931
 30263.81138 -6960.360305 476453.0684
 25408.8886 -6913.902714 476737.3046
 20588.0438 -6852.473464 476970.6986
 15859.04377 -6790.988281 477152.2236
 11234.82563 -6738.573137 477284.2357
 6700.906293 -6700.889783 477369.948
 2226.711621 -6681.26908 477412.0586
 -2226.712477 -6681.267994 477412.0586
 -6700.907114 -6700.886341 477369.948
 -11234.82648 -6738.567687 477284.2357
 -15859.04452 -6790.980686 477152.2237
 -20588.0446 -6852.464255 476970.6987
 -25408.88926 -6913.891852 476737.3048
 -30263.81207 -6960.348268 476453.0685
 -35023.25807 -6965.590675 476126.7932
 -39445.45596 -6879.36269 475782.0947
 -43121.79379 -6612.14388 475466.783
 -45416.40125 -6109.464393 475259.8197
 45364.07096 -9088.842696 475217.177
 42780.51418 -10891.23829 475418.8467
 39280.39952 -11458.01666 475707.5103
 34993.28418 -11619.06546 476038.1693
 30305.3889 -11624.33471 476359.4541
 25482.38661 -11560.98081 476643.3289
 20669.78084 -11470.02145 476878.4647
 15934.26567 -11375.85351 477062.4282
 11294.16026 -11294.14535 477196.7681
 6738.588193 -11234.80917 477284.2358
 2239.60411 -11203.74481 477327.2793
 -2239.605497 -11203.74362 477327.2793
 -6738.589601 -11234.80594 477284.2359
 -11294.16155 -11294.13983 477196.7682
 -15934.26704 -11375.84623 477062.4284
 -20669.78199 -11470.01225 476878.4648
 -25482.38786 -11560.97024 476643.3291
 -30305.38991 -11624.32287 476359.4544
 -34993.28523 -11619.05267 476038.1696
 -39280.40039 -11458.00329 475707.5106
 -42780.51498 -10891.22447 475418.847
 -45364.07154 -9088.828672 475217.1772
 0 0 0
 41520.59238 -15875.21299 475390.2495
 38872.46747 -16123.24868 475605.7647
 34892.67554 -16274.94234 475909.1287
 30335.11306 -16305.4164 476220.312
 25569.66011 -16249.82541 476501.8436
 20776.08169 -16148.88026 476738.3343
 16035.88184 -16035.86851 476925.1228
 11375.86699 -15934.25088 477062.4284
 6791.001784 -15859.02757 477152.224
 2257.617563 -15819.23183 477196.528
 -2257.619484 -15819.23084 477196.5281
 -6791.003638 -15859.02425 477152.224
 -11375.86889 -15934.24571 477062.4285
 -16035.88352 -16035.86124 476925.1229
 -20776.0835 -16148.87146 476738.3345
 -25569.66158 -16249.81505 476501.8439
 -30335.11464 -16305.40488 476220.3123
 -34892.67682 -16274.92994 475909.129
 -38872.46876 -16123.23559 475605.765
 -41520.59352 -15875.19962 475390.2498
 0 0 -0
 0 0 0
 40992.36615 -19981.51959 475281.2179
 38538.28243 -20443.97555 475466.84
 34749.63703 -20796.54598 475743.4579
 30328.20066 -20953.91071 476038.8694
 25643.02588 -20962.35149 476313.8528
 20885.53147 -20885.51958 476549.5367
 16148.89225 -20776.0685 476738.3345
 11470.03347 -20669.7663 476878.465
 6852.485607 -20588.02781 476970.6992
 2278.911761 -20543.87283 477016.3804
 -2278.914137 -20543.87169 477016.3804
 -6852.487995 -20588.02479 476970.6992
 -11470.03571 -20669.76113 476878.4652
 -16148.89456 -20776.06166 476738.3347
 -20885.53345 -20885.51097 476549.537
 -25643.028 -20962.34156 476313.8531
 -30328.20238 -20953.89962 476038.8698
 -34749.63881 -20796.53396 475743.4583
 -38538.2839 -20443.96297 475466.8404
 -40992.36755 -19981.50662 475281.2183
 0 0 -0
 0 0 0
 40710.05732 -22757.57207 475180.6556
 38041.57017 -24191.79566 475330.9029
 34430.11229 -25058.97651 475561.233
 30200.45214 -25493.29506 475825.4889
 25647.43296 -25647.42227 476084.331
 20962.36215 -25643.01413 476313.8529
 16249.83613 -25569.64709 476501.8439
 11560.99159 -25482.37228 476643.3294
 6913.913434 -25408.87299 476737.3053
 2300.494081 -25367.10447 476784.1116
 -2300.496896 -25367.10355 476784.1116
 -6913.916181 -25408.86995 476737.3054
 -11560.99435 -25482.3675 476643.3296
 -16249.83865 -25569.64044 476501.8442
 -20962.36476 -25643.006 476313.8533
 -25647.43517 -25647.41275 476084.3314
 -30200.45444 -25493.28444 475825.4893
 -34430.11419 -25058.96505 475561.2335
 -38041.572 -24191.78352 475330.9034
 -40710.05883 -22757.55951 475180.6561
 0 0 -0
 0 0 0
 0 0 0
 36800.93798 -27423.06796 475253.13
 33657.87468 -28940.5038 475396.1148
 29800.81433 -29800.80454 475600.352
 25493.30467 -30200.44155 475825.4891
 20953.92036 -30328.18895 476038.8697
 16305.42601 -30335.10025 476220.3125
 11624.34429 -30305.37488 476359.4548
 6960.369937 -30263.79606 476453.0692
 2317.418928 -30234.65119 476500.1225
 -2317.422092 -30234.6502 476500.1225
 -6960.373083 -30263.79332 476453.0694
 -11624.3473 -30305.37025 476359.455
 -16305.42902 -30335.09404 476220.3128
 -20953.92307 -30328.18121 476038.8701
 -25493.30742 -30200.43256 475825.4895
 -29800.8167 -29800.7945 475600.3525
 -33657.877 -28940.49288 475396.1153
 -36800.93998 -27423.05639 475253.1305
 0 0 -0
 0 0 -0
 0 0 0
 0 0 0
 0 0 0
 32207.42878 -32207.41951 475286.4767
 28940.51273 -33657.86481 475396.115
 25058.98536 -34430.10158 475561.2333
 20796.55467 -34749.62547 475743.4583
 16274.95101 -34892.6629 475909.1293
 11619.07409 -34993.27039 476038.1702
 6965.612204 -35023.24257 476126.7941
 2321.116605 -35021.60613 476172.2071
 -2321.120068 -35021.60528 476172.2071
 -6965.615613 -35023.23993 476126.7942
 -11619.07744 -34993.26614 476038.1704
 -16274.95418 -34892.65703 475909.1296
 -20796.55779 -34749.61824 475743.4587
 -25058.98818 -34430.09316 475561.2338
 -28940.5155 -33657.8554 475396.1155
 -32207.43125 -32207.40927 475286.4772
 0 0 -0
 0 0 -0
 0 0 -0
 0 0 0
 0 0 0
 0 0 0
 0 0 0
 27423.07632 -36800.92781 475253.1303