# OOMMF OVF 2.0
#
# Segment count: 1
#
# Begin: Segment
# Begin: Header
#
# Title: Oxs_MinDriver::Magnetization
# Desc: Oxs vector field output
# Desc:  MIF source file: F:/Bogdan/UNIC/2022/Master_degree/Samples/Cylinder11_7.mif
# Desc:  Iteration: 712, State id: 1586
# Desc:  Stage: 0, Stage iteration: 712
# Desc:  Stage simulation time: -1 s
# Desc:  Total simulation time: -2 s
# meshunit: m
# meshtype: rectangular
# xbase: -2.0999999999999999e-08
# ybase: -2.0999999999999999e-08
# zbase: -8.9999999999999995e-09
# xnodes: 22
# ynodes: 22
# znodes: 10
# xstepsize: 2.0000000000000001e-09
# ystepsize: 2.0000000000000001e-09
# zstepsize: 2.0000000000000001e-09
# xmin: -2.1999999999999998e-08
# ymin: -2.1999999999999998e-08
# zmin: -1e-08
# xmax: 2.2000000000000005e-08
# ymax: 2.2000000000000005e-08
# zmax: 1e-08
# valuedim: 3
# valuelabels: Magnetization_x Magnetization_y Magnetization_z
# valueunits: A/m A/m A/m
#
# End: Header
#
# Begin: Data Text
 0 0 0
 0 0 0
 0 0 0
 0 0 0
 0 0 0
 0 0 0
 0 0 0
 0 0 0
 -2598.764609 474202.049 55655.49771
 -1771.548928 474182.5504 55853.75408
 -615.9010435 474172.9403 55959.938
 615.9246144 474172.9401 55959.93954
 1771.570288 474182.5498 55853.75783
 2598.783582 474202.0484 55655.50171
 0 0 -0
 0 0 -0
 0 0 -0
 0 0 -0
 0 0 -0
 0 0 -0
 0 0 -0
 0 0 -0
 0 0 0
 0 0 0
 0 0 0
 0 0 0
 0 0 0
 -5183.326221 474845.5337 49666.12121
 -5858.779093 474804.5923 49981.44835
 -6405.368922 474774.276 50201.88681
 -4832.170789 474701.2283 51061.38766
 -2783.311121 474711.564 51118.05421
 -904.718249 474719.6537 51110.69516
 904.7374559 474719.6535 51110.69641
 2783.328521 474711.5636 51118.05734
 4832.185083 474701.2276 51061.39263
 6405.378075 474774.275 50201.89432
 5858.785741 474804.5912 49981.45776
 5183.332671 474845.5326 49666.13054
 0 0 -0
 0 0 -0
 0 0 -0
 0 0 -0
 0 0 -0
 0 0 0
 0 0 0
 0 0 0
 0 0 0
 -8928.553854 475335.3289 44141.56025
 -7942.952068 475257.8771 45152.30991
 -7177.258818 475261.4264 45243.06426
 -6605.627807 475280.5412 45129.19427
 -5210.732509 475304.3011 45061.52404
 -3208.272683 475339.2514 44879.55412
 -1070.76482 475359.6338 44765.42503
 1070.778523 475359.6337 44765.42623
 3208.285474 475339.251 44879.55749
 5210.743015 475304.3004 45061.52992
 6605.63497 475280.5403 45129.20191
 7177.264 475261.4255 45243.07249
 7942.956648 475257.8763 45152.31741
 8928.557912 475335.3282 44141.56722
 0 0 -0
 0 0 -0
 0 0 -0
 0 0 -0
 0 0 0
 0 0 0
 0 0 0
 -10453.59832 475800.2916 38427.54328
 -10292.25443 475722.485 39421.54352
 -9164.440255 475737.6092 39517.23074
 -7974.8674 475781.9241 39240.71203
 -6771.562578 475830.9195 38870.98314
 -5203.83661 475878.2538 38531.53188
 -3247.393767 475918.6867 38245.64486
 -1098.459614 475941.2642 38086.45091
 1098.468445 475941.2641 38086.45194
 3247.402213 475918.6864 38245.64821
 5203.843714 475878.2533 38531.53698
 6771.566892 475830.9189 38870.9897
 7974.870326 475781.9235 39240.71911
 9164.442582 475737.6087 39517.23583
 10292.25627 475722.4846 39421.54702
 10453.5992 475800.2916 38427.54327
 0 0 -0
 0 0 -0
 0 0 -0
 0 0 0
 0 0 0
 -9187.458443 476252.6632 32724.03874
 -10393.67662 476155.3211 33763.18933
 -10192.47903 476153.6567 33847.89331
 -9266.089364 476196.6087 33508.21897
 -8030.329904 476253.5558 33014.17435
 -6624.139347 476309.4904 32515.55638
 -4981.009536 476358.4384 32088.92363
 -3092.3388 476395.6526 31772.48687
 -1047.363509 476415.7329 31604.17324
 1047.368054 476415.7328 31604.17406
 3092.343278 476395.6524 31772.48966
 4981.013706 476358.438 32088.92799
 6624.142148 476309.4901 32515.56107
 8030.331858 476253.5554 33014.17876
 9266.09065 476196.6086 33508.21997
 10192.47945 476153.6568 33847.89234
 10393.67666 476155.3215 33763.18417
 9187.458141 476252.6639 32724.0291
 0 0 -0
 0 0 -0
 0 0 0
 -5480.282229 476674.2249 26898.34743
 -8159.046814 476564.6912 28131.76846
 -9272.092743 476531.3604 28350.69919
 -9298.427001 476547.93 28062.09173
 -8600.660613 476590.8948 27550.29893
 -7488.114998 476642.1208 26983.10813
 -6124.098754 476691.0673 26457.38139
 -4554.401203 476732.3707 26026.43785
 -2809.680283 476762.4421 25720.62892
 -949.6625765 476778.313 25561.87918
 949.6641839 476778.313 25561.88025
 2809.682739 476762.4419 25720.63283
 4554.404326 476732.3704 26026.4417
 6124.101752 476691.0671 26457.38539
 7488.117044 476642.1206 26983.11009
 8600.66102 476590.8948 27550.29755
 9298.425963 476547.9302 28062.0875
 9272.091335 476531.3609 28350.69087
 8159.043791 476564.6919 28131.75659
 5480.27789 476674.2258 26898.33244
 0 0 -0
 0 0 0
 -5994.649554 476876.1189 22915.11972
 -7306.418376 476851.3599 23049.25487
 -8053.581738 476848.9545 22849.19485
 -8063.393795 476869.6223 22410.1824
 -7497.079069 476904.0534 21867.53125
 -6544.600885 476942.8019 21321.42671
 -5338.49882 476979.3069 20835.36726
 -3950.195189 477009.6551 20446.42257
 -2427.027606 477031.3492 20176.04386
 -818.7139593 477042.6592 20037.52167
 818.7136207 477042.6592 20037.52337
 2427.028565 477031.349 20176.04683
 3950.197271 477009.655 20446.4253
 5338.500841 476979.3068 20835.369
 6544.602332 476942.8018 21321.42752
 7497.078892 476904.0536 21867.52865
 8063.392115 476869.6226 22410.17745
 8053.578534 476848.955 22849.18617
 7306.412956 476851.3605 23049.24414
 5994.643069 476876.1196 22915.10707
 0 0 -0
 0 0 0
 -6504.562433 477078.3792 18049.43505
 -6704.289025 477083.4482 17841.16714
 -6837.409382 477094.7093 17485.97886
 -6656.782945 477113.7786 17029.40975
 -6136.618687 477138.0278 16538.3085
 -5342.086891 477163.5922 16069.8372
 -4346.986339 477187.211 15663.35321
 -3207.254413 477206.6399 15342.99925
 -1965.717115 477220.3974 15122.8166
 -662.2138722 477227.5217 15010.83963
 662.2123334 477227.5217 15010.84011
 1965.716394 477220.3973 15122.81925
 3207.254957 477206.6399 15343.00066
 4346.987038 477187.211 15663.35455
 5342.087317 477163.5922 16069.8373
 6136.618028 477138.0279 16538.30567
 6656.779962 477113.7788 17029.40458
 6837.403916 477094.7097 17485.97164
 6704.280129 477083.4487 17841.15877
 6504.552075 477078.3797 18049.42496
 0 0 -0
 -2910.1955 477330.324 10916.21944
 -5006.726975 477274.6606 12478.07486
 -5315.586343 477269.1397 12561.21458
 -5265.822333 477276.6584 12293.64716
 -5013.107166 477288.6921 11926.62769
 -4568.533051 477302.5545 11544.31754
 -3955.501697 477316.4909 11188.95948
 -3208.788661 477329.1114 10885.51416
 -2362.127382 477339.3921 10648.77572
 -1445.346815 477346.6256 10487.19737
 -486.4804118 477350.3563 10405.3812
 486.4784592 477350.3563 10405.38165
 1445.344937 477346.6256 10487.19864
 2362.126424 477339.3921 10648.77683
 3208.787804 477329.1114 10885.51397
 3955.500819 477316.4909 11188.95849
 4568.530489 477302.5546 11544.31266
 5013.102134 477288.6923 11926.62271
 5265.8142 477276.6587 12293.64019
 5315.575003 477269.14 12561.20746
 5006.713944 477274.6609 12478.06803
 2910.180616 477330.3242 10916.21524
 -1943.374943 477407.4671 7085.544175
 -2902.171131 477396.989 7454.096396
 -3281.870285 477394.3793 7463.730994
 -3291.040954 477396.9923 7290.546466
 -3115.967313 477401.6902 7056.075474
 -2820.956448 477407.0239 6815.20277
 -2431.751669 477412.2677 6594.279528
 -1967.424242 477416.9512 6407.437891
 -1445.791725 477420.7376 6262.609179
 -883.6572089 477423.3899 6164.186221
 -297.255034 477424.7544 6114.478162
 297.2515251 477424.7544 6114.477367
 883.6542283 477423.3899 6164.186209
 1445.78937 477420.7376 6262.608487
 1967.422159 477416.9512 6407.43622
 2431.749379 477412.2678 6594.276043
 2820.952925 477407.024 6815.197714
 3115.96148 477401.6904 7056.070366
 3291.032913 477396.9925 7290.540223
 3281.85987 477394.3794 7463.724119
 2902.159163 477396.9892 7454.091093
 1943.36189 477407.4672 7085.540081
 -668.8274878 477457.4303 2413.75261
 -944.292986 477456.6189 2481.263393
 -1096.126563 477456.327 2474.98893
 -1113.800465 477456.5928 2415.107983
 -1055.930139 477457.1233 2334.897276
 -953.9297861 477457.7322 2252.835952
 -820.5924897 477458.3274 2177.967369
 -662.9408102 477458.8557 2114.929671
 -486.7109122 477459.2811 2066.219843
 -297.2990575 477459.5785 2033.187787
 -99.98084977 477459.7312 2016.525145
 99.97659258 477459.7312 2016.524014
 297.2945876 477459.5785 2033.185779
 486.7070656 477459.2812 2066.217628
 662.9370884 477458.8557 2114.925918
 820.5890176 477458.3274 2177.962783
 953.9254312 477457.7322 2252.8288
 1055.924751 477457.1233 2334.889239
 1113.793685 477456.5929 2415.098713
 1096.118511 477456.3271 2474.979954
 944.2832209 477456.619 2481.254895
 668.8167565 477457.4304 2413.745731
 668.8140322 477457.4304 -2413.743976
 944.2811803 477456.619 -2481.254253
 1096.11754 477456.3271 -2474.979043
 1113.793622 477456.5929 -2415.097844
 1055.924992 477457.1233 -2334.888583
 953.9262893 477457.7322 -2252.828627
 820.58951 477458.3274 -2177.963805
 662.9378357 477458.8557 -2114.928764
 486.7076901 477459.2811 -2066.221781
 297.2945143 477459.5784 -2033.191158
 99.97585561 477459.7312 -2016.529969
 -99.98170499 477459.7312 -2016.531737
 -297.3004121 477459.5784 -2033.194303
 -486.7131567 477459.2811 -2066.225954
 -662.9431289 477458.8557 -2114.934939
 -820.5944676 477458.3274 -2177.972202
 -953.9304446 477457.7322 -2252.840011
 -1055.929443 477457.1233 -2334.900429
 -1113.798115 477456.5928 -2415.110409
 -1096.122734 477456.327 -2474.990471
 -944.2876284 477456.6189 -2481.263873
 -668.8211644 477457.4303 -2413.753798
 1943.36259 477407.4673 -7085.534029
 2902.160461 477396.9893 -7454.08551
 3281.861593 477394.3795 -7463.719138
 3291.034677 477396.9925 -7290.535307
 3115.96319 477401.6904 -7056.066154
 2820.954119 477407.0241 -6815.195241
 2431.749604 477412.2678 -6594.275274
 1967.422207 477416.9512 -6407.437151
 1445.789149 477420.7376 -6262.611195
 883.6534654 477423.3899 -6164.190352
 297.2500369 477424.7543 -6114.483386
 -297.2569243 477424.7543 -6114.485329
 -883.6602392 477423.3898 -6164.194378
 -1445.795599 477420.7375 -6262.616999
 -1967.428228 477416.9511 -6407.445232
 -2431.754594 477412.2676 -6594.286176
 -2820.957648 477407.0238 -6815.209174
 -3115.966072 477401.6901 -7056.08228
 -3291.037428 477396.9922 -7290.553121
 -3281.863953 477394.3792 -7463.736379
 -2902.163437 477396.989 -7454.101462
 -1943.365834 477407.4671 -7085.54903
 2910.183716 477330.3243 -10916.20888
 5006.717787 477274.661 -12478.06221
 5315.57927 477269.1401 -12561.20135
 5265.817329 477276.6588 -12293.63406
 5013.104718 477288.6924 -11926.61795
 4568.531955 477302.5547 -11544.31015
 3955.501139 477316.491 -11188.95658
 3208.787885 477329.1114 -10885.51406
 2362.12595 477339.392 -10648.77867
 1445.344001 477346.6255 -10487.20227
 486.476369 477350.3562 -10405.38739
 -486.483383 477350.3561 -10405.3891
 -1445.350643 477346.6254 -10487.20654
 -2362.132599 477339.3918 -10648.78494
 -3208.79389 477329.1111 -10885.52283
 -3955.5065 477316.4907 -11188.9678
 -4568.535805 477302.5543 -11544.32467
 -5013.106899 477288.6919 -11926.63549
 -5265.818733 477276.6582 -12293.65508
 -5315.579732 477269.1396 -12561.22148
 -5006.718546 477274.6605 -12478.08004
 -2910.185496 477330.3239 -10916.22461
 0 0 0
 6504.557538 477078.3798 -18049.41991
 6704.285256 477083.4488 -17841.15246
 6837.407986 477094.7098 -17485.96562
 6656.783305 477113.7789 -17029.40017
 6136.619898 477138.028 -16538.30218
 5342.088072 477163.5923 -16069.83512
 4346.986836 477187.211 -15663.35348
 3207.253792 477206.6398 -15343.0018
 1965.71521 477220.3972 -15122.82251
 662.2100518 477227.5215 -15010.84653
 -662.2172259 477227.5214 -15010.84827
 -1965.721662 477220.397 -15122.82706
 -3207.26032 477206.6395 -15343.01025
 -4346.99272 477187.2106 -15663.36398
 -5342.093357 477163.5918 -16069.84677
 -6136.623461 477138.0274 -16538.31727
 -6656.784898 477113.7783 -17029.41751
 -6837.407952 477094.7091 -17485.98673
 -6704.284461 477083.448 -17841.17401
 -6504.556152 477078.3791 -18049.4396
 0 0 -0
 0 0 0
 5994.648449 476876.1197 -22915.10319
 7306.418683 476851.3606 -23049.24005
 8053.583954 476848.9551 -22849.18248
 8063.396908 476869.6227 -22410.17392
 7497.08241 476904.0536 -21867.52682
 6544.604016 476942.8019 -21321.4257
 5338.501167 476979.3068 -20835.36881
 3950.196154 477009.6549 -20446.42641
 2427.027136 477031.3489 -20176.05027
 818.7111831 477042.6589 -20037.5296
 -818.7175419 477042.6588 -20037.53188
 -2427.03275 477031.3486 -20176.05556
 -3950.202001 477009.6545 -20446.4346
 -5338.505995 476979.3063 -20835.37842
 -6544.608211 476942.8013 -21321.43712
 -7497.084989 476904.053 -21867.53951
 -8063.396947 476869.6219 -22410.19017
 -8053.582155 476848.9542 -22849.20065
 -7306.416212 476851.3597 -23049.25966
 -5994.64589 476876.1188 -22915.12273
 0 0 -0
 0 0 0
 5480.283451 476674.2259 -26898.33027
 8159.050343 476564.6919 -28131.75453
 9272.097845 476531.3609 -28350.68864
 9298.432004 476547.9303 -28062.08508
 8600.665557 476590.8948 -27550.29581
 7488.120136 476642.1207 -26983.10887
 6124.10313 476691.0671 -26457.38447
 4554.404086 476732.3704 -26026.44335
 2809.681813 476762.4417 -25720.63674
 949.6620539 476778.3125 -25561.88826
 -949.6664184 476778.3125 -25561.88934
 -2809.685529 476762.4414 -25720.64165
 -4554.408339 476732.3699 -26026.4511
 -6124.106468 476691.0665 -26457.39466
 -7488.122643 476642.12 -26983.11933
 -8600.667265 476590.8941 -27550.30874
 -9298.431234 476547.9294 -28062.09988
 -9272.09498 476531.36 -28350.705
 -8159.046547 476564.6909 -28131.77208
 -5480.279926 476674.2249 -26898.34899
 0 0 -0
 0 0 0
 0 0 0
 9187.465852 476252.6638 -32724.02787
 10393.68402 476155.3215 -33763.18127
 10192.48587 476153.6569 -33847.88874
 9266.095743 476196.6087 -33508.21736
 8030.336204 476253.5555 -33014.17704
 6624.144529 476309.49 -32515.56188
 4981.014041 476358.4379 -32088.93082
 3092.342262 476395.652 -31772.49493
 1047.365202 476415.7323 -31604.1828
 -1047.368009 476415.7321 -31604.18483
 -3092.344435 476395.6517 -31772.50044
 -4981.01703 476358.4373 -32088.93796
 -6624.147429 476309.4894 -32515.57039
 -8030.337703 476253.5547 -33014.1882
 -9266.096642 476196.6077 -33508.23135
 -10192.48487 476153.6558 -33847.90441
 -10393.68088 476155.3204 -33763.19777
 -9187.460632 476252.6628 -32724.04328
 0 0 -0
 0 0 -0
 0 0 0
 0 0 0
 0 0 0
 10453.60653 475800.2918 -38427.53875
 10292.26245 475722.4849 -39421.54219
 9164.448172 475737.6089 -39517.23213
 7974.875286 475781.9236 -39240.71699
 6771.569929 475830.9188 -38870.99016
 5203.843717 475878.253 -38531.54014
 3247.399567 475918.6859 -38245.65457
 1098.464042 475941.2633 -38086.46174
 -1098.465947 475941.2632 -38086.46324
 -3247.401916 475918.6855 -38245.65954
 -5203.845054 475878.2524 -38531.54732
 -6771.571122 475830.918 -38870.99941
 -7974.876499 475781.9226 -39240.72844
 -9164.449126 475737.6077 -39517.24631
 -10292.26281 475722.4836 -39421.55817
 -10453.60526 475800.2905 -38427.55562
 0 0 -0
 0 0 -0
 0 0 -0
 0 0 0
 0 0 0
 0 0 0
 0 0 0
 8928.563143 475335.3286 -44141.56154
 7942.961809 475257.8766 -45152.31318
 7177.268669 475261.4257 -45243.06985
 6605.63761 475280.5403 -45129.20148
 5210.741403 475304.3001 -45061.53321
 3208.280757 475339.2504 -44879.56393
 1070.771688 475359.6328 -44765.43635
 -1070.773297 475359.6326 -44765.43831
 -3208.282879 475339.2498 -44879.57001
 -5210.742984 475304.2993 -45061.54114
 -6605.637272 475280.5393 -45129.21253
 -7177.268703 475261.4245 -45243.08274
 -7942.962313 475257.8752 -45152.32798
 -8928.564508 475335.3271 -44141.57767
 0 0 -0
 0 0 -0
 0 0 -0
 0 0 -0
 0 0 0
 0 0 0
 0 0 0
 0 0 0
 0 0 0
 5183.33782 474845.5331 -49666.12573
 5858.79059 474804.5915 -49981.45424
 6405.379927 474774.275 -50201.89398
 4832.180963 474701.2272 -51061.39624
 2783.320949 474711.5629 -51118.06411
 904.7282254 474719.6524 -51110.70707
 -904.7294069 474719.6523 -51110.70832
 -2783.323491 474711.5622 -51118.07066
 -4832.183221 474701.2262 -51061.40577
 -6405.379413 474774.2738 -50201.90606
 -5858.788979 474804.59 -49981.4686
 -5183.336307 474845.5315 -49666.14117
 0 0 -0
 0 0 -0
 0 0 -0
 0 0 -0
 0 0 -0
 0 0 0
 0 0 0
 0 0 0
 0 0 0
 0 0 0
 0 0 0
 0 0 0
 0 0 0
 2598.776198 474202.0479 -55655.50699
 1771.561279 474182.5491 -55853.76451
 615.9121679 474172.9388 -55959.95027
 -615.9154984 474172.9386 -55959.95181
 -1771.562942 474182.5483 -55853.77076
 -2598.778233 474202.0469 -55655.51503
 0 0 -0
 0 0 -0
 0 0 -0
 0 0 -0
 0 0 -0
 0 0 -0
 0 0 -0
 0 0 -0
 0 0 0
 0 0 0
 0 0 0
 0 0 0
 0 0 0
 0 0 0
 0 0 0
 0 0 0
 -2844.691703 474986.8267 48490.13795
 -1908.427669 474966.6136 48733.40909
 -658.5181881 474957.3262 48856.6873
 658.5414135 474957.3261 48856.68856
 1908.448444 474966.6132 48733.41252
 2844.710063 474986.8262 48490.14155
 0 0 -0
 0 0 -0
 0 0 -0
 0 0 -0
 0 0 -0
 0 0 -0
 0 0 -0
 0 0 -0
 0 0 0
 0 0 0
 0 0 0
 0 0 0
 0 0 0
 -5460.477027 475477.6941 43162.67945
 -6228.45271 475432.8862 43550.52657
 -6930.869341 475386.4277 43949.7291
 -5276.7289 475312.214 44970.28644
 -3015.150807 475312.1649 45178.82271
 -973.8552598 475316.4943 45223.3696
 973.8750003 475316.4941 45223.37074
 3015.168264 475312.1645 45178.82597
 5276.742198 475312.2134 44970.29122
 6930.87675 475386.4269 43949.73682
 6228.456896 475432.8854 43550.53544
 5460.480118 475477.6932 43162.68884
 0 0 -0
 0 0 -0
 0 0 -0
 0 0 -0
 0 0 -0
 0 0 0
 0 0 0
 0 0 0
 0 0 0
 -9579.876006 475812.6851 38501.76558
 -8517.828736 475737.1614 39667.00346
 -7660.26493 475728.1464 39948.99693
 -7071.393438 475733.8129 39990.07264
 -5594.372474 475747.6143 40059.72736
 -3435.379054 475774.6663 39981.70052
 -1143.33262 475791.4352 39913.33463
 1143.347237 475791.4351 39913.33574
 3435.391538 475774.6659 39981.70361
 5594.381698 475747.6137 40059.73306
 7071.398789 475733.8123 39990.07995
 7660.267686 475728.1457 39949.00501
 8517.830805 475737.1607 39667.01098
 9579.877035 475812.6845 38501.77247
 0 0 -0
 0 0 -0
 0 0 -0
 0 0 -0
 0 0 0
 0 0 0
 0 0 0
 -11207.37014 476160.2967 33431.09309
 -11062.08461 476076.0328 34657.07054
 -9793.928819 476077.5808 35015.52913
 -8468.526759 476110.0777 34919.18188
 -7172.008637 476149.3092 34673.75044
 -5507.895341 476189.3014 34427.94885
 -3432.746205 476224.633 34207.98907
 -1159.82149 476244.6903 34081.096
 1159.830922 476244.6902 34081.09687
 3432.754493 476224.6327 34207.99222
 5507.901475 476189.3009 34427.95387
 7172.012546 476149.3086 34673.75683
 8468.528514 476110.0772 34919.18857
 9793.929594 476077.5804 35015.53506
 11062.08473 476076.0326 34657.07438
 11207.36951 476160.2967 33431.09409
 0 0 -0
 0 0 -0
 0 0 -0
 0 0 0
 0 0 0
 -9821.450074 476519.6341 28362.80586
 -11155.38557 476413.9333 29617.44153
 -10887.9343 476397.3477 29981.51581
 -9829.888683 476428.6796 29848.9172
 -8466.466876 476476.8687 29495.48859
 -6956.461823 476525.9901 29093.98098
 -5219.777841 476569.8663 28736.52306
 -3236.246085 476603.6696 28466.47405
 -1095.284132 476622.0418 28321.38616
 1095.289013 476622.0418 28321.38652
 3236.250909 476603.6694 28466.4771
 5219.781579 476569.866 28736.52669
 6956.464675 476525.9897 29093.98617
 8466.468314 476476.8684 29495.49341
 9829.889088 476428.6794 29848.91948
 10887.93425 476397.3477 29981.51628
 11155.38484 476413.9335 29617.43832
 9821.448366 476519.6346 28362.7984
 0 0 -0
 0 0 -0
 0 0 0
 -5773.812923 476856.4893 23375.69192
 -8727.110406 476747.2403 24653.14763
 -9891.675772 476702.0444 25083.59808
 -9856.558495 476707.9186 24985.59373
 -9057.138824 476742.9306 24617.42529
 -7842.25445 476788.1557 24154.19081
 -6388.461537 476832.4644 23703.58119
 -4739.045382 476870.3149 23326.28404
 -2919.203578 476898.0784 23055.85234
 -985.9679305 476912.7925 22914.78824
 985.9699605 476912.7924 22914.78986
 2919.20538 476898.0783 23055.85515
 4739.047347 476870.3147 23326.28824
 6388.463035 476832.4642 23703.58538
 7842.255808 476788.1555 24154.19346
 9057.139946 476742.9306 24617.42558
 9856.558937 476707.9187 24985.59091
 9891.674364 476702.0448 25083.59211
 8727.108643 476747.2408 24653.138
 5773.810194 476856.49 23375.67956
 0 0 -0
 0 0 0
 -6389.218032 476995.6513 20154.35016
 -7786.112841 476964.9636 20388.01721
 -8536.40149 476954.6552 20328.74835
 -8490.805235 476968.7272 20015.26362
 -7847.251757 476998.1335 19572.2399
 -6816.780617 477033.0095 19102.63328
 -5540.167306 477066.5051 18674.24891
 -4089.148144 477094.6064 18327.21297
 -2508.529549 477114.7979 18084.47282
 -845.5855131 477125.3543 17959.74739
 845.5856184 477125.3543 17959.74788
 2508.52946 477114.7978 18084.47582
 4089.148537 477094.6063 18327.21527
 5540.168923 477066.5049 18674.25205
 6816.781638 477033.0095 19102.634
 7847.252248 476998.1335 19572.23871
 8490.804016 476968.7274 20015.25922
 8536.398787 476954.6556 20328.74077
 7786.108785 476964.9641 20388.00766
 6389.213018 476995.6518 20154.33896
 0 0 -0
 0 0 0
 -7018.849697 477149.5051 15841.61629
 -7156.763636 477148.3014 15816.14809
 -7225.395319 477154.613 15592.95509
 -6979.779603 477169.9276 15232.01157
 -6395.622047 477191.2837 14813.71186
 -5541.739737 477214.5746 14401.74396
 -4493.893094 477236.411 14038.66896
 -3307.650327 477254.5046 13750.22101
 -2024.180802 477267.3677 13551.15088
 -681.4125999 477274.0431 13449.71164
 681.4121114 477274.0431 13449.71291
 2024.180486 477267.3677 13551.15249
 3307.650626 477254.5045 13750.22328
 4493.894017 477236.411 14038.67042
 5541.74007 477214.5745 14401.74487
 6395.620603 477191.2838 14813.70952
 6979.7769 477169.9278 15232.00647
 7225.390787 477154.6133 15592.94783
 7156.758064 477148.3017 15816.13995
 7018.843251 477149.5055 15841.60752
 0 0 -0
 -3109.666577 477365.3838 9191.93016
 -5421.077589 477309.7321 10858.3078
 -5681.014353 477300.5788 11124.5136
 -5557.884397 477305.6413 10968.40908
 -5243.877365 477315.8828 10673.38263
 -4748.367723 477328.3399 10343.1231
 -4092.10528 477341.1485 10027.65567
 -3308.4165 477352.8752 9754.907432
 -2429.755175 477362.4833 9540.812213
 -1484.527694 477369.2656 9394.238125
 -499.3107607 477372.7696 9319.913409
 499.309998 477372.7696 9319.913466
 1484.52749 477369.2656 9394.239776
 2429.755155 477362.4833 9540.812945
 3308.416854 477352.8752 9754.907986
 4092.104296 477341.1486 10027.65495
 4748.365731 477328.34 10343.11971
 5243.87362 477315.8829 10673.37755
 5557.879373 477305.6415 10968.40274
 5681.007331 477300.5791 11124.50621
 5421.068611 477309.7324 10858.30045
 3109.655959 477365.384 9191.924433
 -2070.442527 477420.3029 6118.73952
 -3118.9427 477409.1395 6531.236734
 -3496.755235 477405.302 6619.788881
 -3468.107608 477407.0524 6507.678987
 -3254.547671 477411.1309 6315.953111
 -2927.270061 477415.9764 6106.382456
 -2511.552588 477420.823 5909.415573
 -2025.164808 477425.1889 5740.994024
 -1484.773357 477428.7354 5609.752888
 -906.1588313 477431.2265 5520.335058
 -304.6085469 477432.5099 5475.121405
 304.607961 477432.5099 5475.121283
 906.1573769 477431.2265 5520.334728
 1484.772323 477428.7354 5609.752327
 2025.16365 477425.1889 5740.992446
 2511.550867 477420.823 5909.413192
 2927.267059 477415.9764 6106.377864
 3254.543662 477411.131 6315.947839
 3468.101468 477407.0525 6507.672712
 3496.747086 477405.3022 6619.78186
 3118.932703 477409.1396 6531.229738
 2070.431892 477420.303 6118.733138
 -711.1225837 477458.8223 2106.804453
 -1009.437262 477457.9355 2184.537075
 -1164.611667 477457.5192 2198.260195
 -1172.236612 477457.6905 2156.593458
 -1101.979446 477458.1531 2090.200361
 -989.1136692 477458.7087 2018.528691
 -846.8556472 477459.2602 1951.655413
 -681.8604284 477459.7535 1894.766633
 -499.4447251 477460.1524 1850.592332
 -304.634316 477460.4319 1820.564744
 -102.3754563 477460.5757 1805.40156
 102.372568 477460.5757 1805.401055
 304.6317239 477460.4319 1820.562998
 499.4419021 477460.1524 1850.590063
 681.8580248 477459.7535 1894.762806
 846.8530119 477459.2603 1951.649857
 989.1112634 477458.7087 2018.521291
 1101.975937 477458.1532 2090.192288
 1172.231396 477457.6906 2156.583938
 1164.604102 477457.5192 2198.250578
 1009.428661 477457.9355 2184.527971
 711.1140537 477458.8223 2106.79544
 711.1113774 477458.8223 -2106.794058
 1009.426478 477457.9355 -2184.526804
 1164.60288 477457.5193 -2198.249812
 1172.231115 477457.6906 -2156.583098
 1101.97641 477458.1532 -2090.191232
 989.1119205 477458.7087 -2018.520979
 846.8544369 477459.2602 -1951.650822
 681.8592004 477459.7535 -1894.765306
 499.4425927 477460.1524 -1850.593497
 304.6314589 477460.4319 -1820.567736
 102.3720585 477460.5757 -1805.406408
 -102.3764288 477460.5757 -1805.407463
 -304.6360866 477460.4319 -1820.570624
 -499.4468163 477460.1524 -1850.597932
 -681.8626208 477459.7535 -1894.771057
 -846.8567744 477459.2602 -1951.659076
 -989.1146504 477458.7087 -2018.531852
 -1101.978871 477458.1531 -2090.203279
 -1172.23491 477457.6905 -2156.595842
 -1164.608215 477457.5192 -2198.262256
 -1009.432461 477457.9355 -2184.538623
 -711.1167709 477458.8223 -2106.805027
 2070.431803 477420.3031 -6118.72815
 3118.933067 477409.1397 -6531.225003
 3496.748039 477405.3022 -6619.777295
 3468.103026 477407.0525 -6507.668114
 3254.544814 477411.1311 -6315.94397
 2927.268618 477415.9765 -6106.375263
 2511.551768 477420.823 -5909.411593
 2025.164219 477425.1889 -5740.992898
 1484.772151 477428.7354 -5609.754494
 906.1561553 477431.2265 -5520.338406
 304.6056241 477432.5099 -5475.12629
 -304.6115722 477432.5099 -5475.127934
 -906.1621391 477431.2264 -5520.342304
 -1484.777456 477428.7353 -5609.760203
 -2025.168435 477425.1888 -5741.000745
 -2511.55537 477420.8229 -5909.422426
 -2927.271453 477415.9763 -6106.388484
 -3254.547454 477411.1309 -6315.959102
 -3468.104758 477407.0523 -6507.684846
 -3496.750482 477405.302 -6619.794277
 -3118.935963 477409.1394 -6531.241338
 -2070.434823 477420.3028 -6118.743735
 3109.657851 477365.3841 -9191.917755
 5421.070976 477309.7325 -10858.29449
 5681.009687 477300.5792 -11124.50033
 5557.881617 477305.6416 -10968.39698
 5243.875942 477315.883 -10673.37252
 4748.367693 477328.3401 -10343.11571
 4092.105537 477341.1486 -10027.65197
 3308.417014 477352.8752 -9754.906951
 2429.754383 477362.4833 -9540.81388
 1484.525567 477369.2655 -9394.242574
 499.3074472 477372.7695 -9319.918824
 -499.3142073 477372.7695 -9319.920618
 -1484.532627 477369.2654 -9394.247045
 -2429.760203 477362.4831 -9540.821286
 -3308.421723 477352.875 -9754.916298
 -4092.109128 477341.1483 -10027.66438
 -4748.370247 477328.3397 -10343.13089
 -5243.877583 477315.8826 -10673.38999
 -5557.882588 477305.6412 -10968.41623
 -5681.009906 477300.5788 -11124.51953
 -5421.071005 477309.7321 -10858.31319
 -3109.657786 477365.3838 -9191.93541
 0 0 0
 7018.846752 477149.5056 -15841.60195
 7156.761887 477148.3019 -15816.13388
 7225.394781 477154.6134 -15592.94249
 6979.780436 477169.9279 -15232.00142
 6395.623725 477191.2839 -14813.70529
 5541.741901 477214.5746 -14401.74142
 4493.894241 477236.411 -14038.66851
 3307.650201 477254.5045 -13750.22334
 2024.179055 477267.3676 -13551.15584
 681.4100483 477274.0429 -13449.71823
 -681.4160138 477274.0429 -13449.71963
 -2024.185575 477267.3674 -13551.16037
 -3307.655769 477254.5043 -13750.2316
 -4493.89898 477236.4106 -14038.67952
 -5541.745119 477214.5742 -14401.75361
 -6395.625857 477191.2834 -14813.72043
 -6979.781164 477169.9273 -15232.01946
 -7225.394545 477154.6128 -15592.96187
 -7156.760722 477148.3012 -15816.15442
 -7018.845805 477149.505 -15841.62098
 0 0 -0
 0 0 0
 6389.217947 476995.6519 -20154.33503
 7786.114 476964.9642 -20388.00333
 8536.403801 476954.6557 -20328.73663
 8490.808857 476968.7275 -20015.25517
 7847.255965 476998.1336 -19572.23466
 6816.784039 477033.0096 -19102.63134
 5540.169819 477066.505 -18674.25023
 4089.149034 477094.6062 -18327.21651
 2508.528816 477114.7977 -18084.47869
 845.5839948 477125.3541 -17959.75395
 -845.5882881 477125.354 -17959.75603
 -2508.533986 477114.7975 -18084.48376
 -4089.153502 477094.6059 -18327.22418
 -5540.173995 477066.5046 -18674.2604
 -6816.786914 477033.0091 -19102.64324
 -7847.25719 476998.133 -19572.24916
 -8490.808534 476968.7268 -20015.27114
 -8536.402439 476954.6549 -20328.75463
 -7786.111706 476964.9634 -20388.02189
 -6389.21542 476995.6512 -20154.35333
 0 0 -0
 0 0 0
 5773.815702 476856.49 -23375.67661
 8727.115104 476747.2409 -24653.13476
 9891.68142 476702.0448 -25083.58852
 9856.56456 476707.9188 -24985.58669
 9057.145078 476742.9307 -24617.42234
 7842.259306 476788.1556 -24154.19099
 6388.465108 476832.4642 -23703.5843
 4739.048114 476870.3146 -23326.28912
 2919.204867 476898.0781 -23055.85945
 985.9685775 476912.7921 -22914.79638
 -985.9712696 476912.792 -22914.79767
 -2919.208433 476898.0779 -23055.86355
 -4739.051524 476870.3142 -23326.29689
 -6388.468646 476832.4637 -23703.59405
 -7842.261562 476788.155 -24154.20242
 -9057.145131 476742.93 -24617.43494
 -9856.563032 476707.918 -24985.60265
 -9891.678137 476702.044 -25083.60463
 -8727.1107 476747.2401 -24653.15182
 -5773.811643 476856.4892 -23375.69393
 0 0 -0
 0 0 0
 0 0 0
 9821.457109 476519.6345 -28362.79561
 11155.39297 476413.9336 -29617.43383
 10887.94126 476397.3478 -29981.51181
 9829.895337 476428.6796 -29848.91543
 8466.472599 476476.8684 -29495.49112
 6956.467822 476525.9897 -29093.98595
 5219.78232 476569.8659 -28736.52854
 3236.249495 476603.6691 -28466.48155
 1095.286289 476622.0413 -28321.39427
 -1095.288277 476622.0412 -28321.39616
 -3236.252307 476603.6688 -28466.48681
 -5219.784418 476569.8654 -28736.53662
 -6956.469528 476525.9891 -29093.99464
 -8466.474658 476476.8677 -29495.50192
 -9829.895051 476428.6787 -29848.92988
 -10887.93978 476397.3469 -29981.52694
 -11155.38923 476413.9326 -29617.45058
 -9821.451567 476519.6337 -28362.81143
 0 0 -0
 0 0 -0
 0 0 0
 0 0 0
 0 0 0
 11207.37842 476160.2968 -33431.08852
 11062.09252 476076.0328 -34657.06878
 9793.936475 476077.5806 -35015.53043
 8468.534394 476110.0773 -34919.18538
 7172.015546 476149.3087 -34673.75574
 5507.901641 476189.3007 -34427.95657
 3432.752306 476224.6323 -34207.99747
 1159.825681 476244.6896 -34081.1054
 -1159.828448 476244.6894 -34081.10743
 -3432.753736 476224.6319 -34208.0025
 -5507.903689 476189.3002 -34427.96386
 -7172.016693 476149.3079 -34673.76678
 -8468.534635 476110.0764 -34919.19799
 -9793.936375 476077.5795 -35015.54461
 -11062.09133 476076.0316 -34657.0848
 -11207.37555 476160.2957 -33431.10531
 0 0 -0
 0 0 -0
 0 0 -0
 0 0 0
 0 0 0
 0 0 0
 0 0 0
 9579.88422 475812.6849 -38501.76655