# OOMMF OVF 2.0
#
# Segment count: 1
#
# Begin: Segment
# Begin: Header
#
# Title: Oxs_MinDriver::Magnetization
# Desc: Oxs vector field output
# Desc:  MIF source file: F:/Bogdan/UNIC/2022/Master_degree/Samples/Cylinder11_7.mif
# Desc:  Iteration: 1062, State id: 4602
# Desc:  Stage: 2, Stage iteration: 57
# Desc:  Stage simulation time: 0 s
# Desc:  Total simulation time: -2 s
# meshunit: m
# meshtype: rectangular
# xbase: -3.5000000000000003e-09
# ybase: -3.5000000000000003e-09
# zbase: -9.5000000000000007e-09
# xnodes: 8
# ynodes: 8
# znodes: 20
# xstepsize: 1.0000000000000001e-09
# ystepsize: 1.0000000000000001e-09
# zstepsize: 1.0000000000000001e-09
# xmin: -4.0000000000000002e-09
# ymin: -4.0000000000000002e-09
# zmin: -1e-08
# xmax: 4.0000000000000002e-09
# ymax: 4.0000000000000002e-09
# zmax: 1e-08
# valuedim: 3
# valuelabels: Magnetization_x Magnetization_y Magnetization_z
# valueunits: A/m A/m A/m
#
# End: Header
#
# Begin: Data Text
 0 0 0
 0 0 0
 2340.553435 6758.155509 477410.4319
 887.527724 6845.767039 477414.096
 -887.5151477 6845.767037 477414.096
 -2340.540878 6758.155521 477410.4319
 0 0 -0
 0 0 -0
 0 0 0
 4714.742224 4714.728189 477417.4419
 3003.717994 5278.154865 477425.3764
 1039.142243 5448.282111 477431.7833
 -1039.129672 5448.282134 477431.7833
 -3003.705441 5278.154882 477425.3765
 -4714.729698 4714.728241 477417.442
 0 0 -0
 6758.169475 2340.539369 477410.4317
 5278.168875 3003.703925 477425.3764
 3330.710348 3330.696285 477440.765
 1138.048802 3454.100312 477450.1496
 -1138.036253 3454.100308 477450.1496
 -3330.697818 3330.696343 477440.7651
 -5278.156369 3003.703977 477425.3765
 -6758.157006 2340.539446 477410.4319
 6845.780987 887.5136227 477414.0958
 5448.296106 1039.128139 477431.7832
 3454.114334 1138.034723 477450.1495
 1180.008238 1179.994177 477461.0837
 -1179.995731 1179.994217 477461.0838
 -3454.10184 1138.034752 477450.1496
 -5448.283638 1039.128226 477431.7833
 -6845.768547 887.5137058 477414.096
 6845.780975 -887.5292663 477414.0958
 5448.296095 -1039.143788 477431.7831
 3454.114302 -1138.050348 477450.1495
 1180.008218 -1180.009781 477461.0837
 -1179.995768 -1180.00979 477461.0837
 -3454.101859 -1138.050273 477450.1496
 -5448.283674 -1039.143716 477431.7833
 -6845.76857 -887.5291592 477414.096
 6758.169453 -2340.554993 477410.4316
 5278.168815 -3003.71954 477425.3763
 3330.710287 -3330.711903 477440.7649
 1138.048713 -3454.11589 477450.1495
 -1138.036326 -3454.115847 477450.1495
 -3330.69791 -3330.711862 477440.765
 -5278.156436 -3003.719447 477425.3764
 -6758.157074 -2340.55488 477410.4318
 0 0 0
 4714.74214 -4714.74378 477417.4418
 3003.717879 -5278.17042 477425.3763
 1039.142132 -5448.29766 477431.7831
 -1039.129809 -5448.297653 477431.7831
 -3003.70556 -5278.170361 477425.3763
 -4714.729815 -4714.743701 477417.4419
 0 0 -0
 0 0 0
 0 0 0
 2340.55331 -6758.171037 477410.4316
 887.5275789 -6845.782536 477414.0958
 -887.515302 -6845.782514 477414.0958
 -2340.541048 -6758.170989 477410.4317
 0 0 -0
 0 0 -0
 0 0 0
 0 0 0
 1955.74349 5798.528633 477424.783
 758.6923535 5879.789471 477427.1921
 -758.6801379 5879.789487 477427.1921
 -1955.731294 5798.528631 477424.7831
 0 0 -0
 0 0 -0
 0 0 0
 4030.463513 4030.449877 477429.9762
 2592.098838 4595.476054 477434.8478
 906.5952555 4783.685644 477439.1749
 -906.5830493 4783.685618 477439.1749
 -2592.086648 4595.476113 477434.8479
 -4030.451346 4030.449911 477429.9763
 0 0 -0
 5798.542207 1955.729823 477424.7829
 4595.489705 2592.085135 477434.8478
 2937.811995 2937.798368 477445.9235
 1010.916982 3074.640623 477453.0301
 -1010.904797 3074.640684 477453.0301
 -2937.799824 2937.798364 477445.9236
 -4595.477566 2592.085227 477434.8479
 -5798.530094 1955.729885 477424.783
 5879.80304 758.6786347 477427.192
 4783.699224 906.581576 477439.1748
 3074.654296 1010.903248 477453.03
 1056.987513 1056.973902 477461.6601
 -1056.975369 1056.973858 477461.6601
 -3074.642168 1010.903349 477453.0301
 -4783.687116 906.581613 477439.1749
 -5879.790961 758.6787315 477427.1921
 5879.803033 -758.6938633 477427.1919
 4783.699207 -906.5967814 477439.1748
 3074.654259 -1010.918471 477453.03
 1056.987512 -1056.989079 477461.6601
 -1056.975424 -1056.98899 477461.6601
 -3074.642184 -1010.918472 477453.0301
 -4783.68714 -906.5966683 477439.1749
 -5879.79099 -758.6937711 477427.1921
 5798.542184 -1955.745016 477424.7828
 4595.489651 -2592.100358 477434.8477
 2937.811931 -2937.813517 477445.9234
 1010.916889 -3074.655796 477453.03
 -1010.904866 -3074.655836 477453.03
 -2937.799908 -2937.813422 477445.9235
 -4595.477642 -2592.100292 477434.8478
 -5798.530159 -1955.744899 477424.783
 0 0 0
 4030.463427 -4030.465033 477429.976
 2592.098728 -4595.49124 477434.8477
 906.5951418 -4783.700752 477439.1748
 -906.583181 -4783.700702 477439.1748
 -2592.086773 -4595.491207 477434.8477
 -4030.451457 -4030.464949 477429.9761
 0 0 -0
 0 0 0
 0 0 0
 1955.743365 -5798.543738 477424.7828
 758.6922114 -5879.804566 477427.1919
 -758.6802937 -5879.804554 477427.1919
 -1955.731462 -5798.543685 477424.7829
 0 0 -0
 0 0 -0
 0 0 0
 0 0 0
 1541.446325 4656.487629 477438.8048
 602.6244169 4724.657662 477440.2431
 -602.6128769 4724.657647 477440.2431
 -1541.434798 4656.487645 477438.8049
 0 0 -0
 0 0 -0
 0 0 0
 3226.787034 3226.774082 477442.1924
 2080.164999 3713.551889 477445.0269
 731.2778871 3886.555825 477447.6214
 -731.2663538 3886.555882 477447.6215
 -2080.153488 3713.551877 477445.027
 -3226.775537 3226.77414 477442.1925
 0 0 -0
 4656.500516 1541.433351 477438.8048
 3713.564766 2080.152085 477445.0269
 2393.408928 2393.395911 477452.0023
 828.0371843 2524.342289 477456.6089
 -828.0256814 2524.342234 477456.6089
 -2393.397435 2393.39601 477452.0024
 -3713.553296 2080.152104 477445.027
 -4656.489072 1541.433428 477438.8049
 4724.670512 602.6114487 477440.243
 3886.568755 731.2648336 477447.6213
 2524.355142 828.0242981 477456.6088
 872.8397824 872.8267578 477462.4044
 -872.8283188 872.8268565 477462.4044
 -2524.343691 828.0242721 477456.6089
 -3886.557323 731.2649514 477447.6214
 -4724.6591 602.6115137 477440.2431
 4724.670507 -602.6259089 477440.243
 3886.568717 -731.2793007 477447.6213
 2524.355166 -828.0387316 477456.6088
 872.8396824 -872.8411815 477462.4044
 -872.8282749 -872.8412516 477462.4044
 -2524.343764 -828.0386091 477456.6089
 -3886.557333 -731.2792658 477447.6214
 -4724.659129 -602.6257962 477440.2431
 4656.500491 -1541.4478 477438.8047
 3713.564728 -2080.166504 477445.0268
 2393.408818 -2393.410371 477452.0023
 828.0371677 -2524.356678 477456.6088
 -828.0258231 -2524.356588 477456.6088
 -2393.397475 -2393.410372 477452.0023
 -3713.553381 -2080.166393 477445.0269
 -4656.489137 -1541.447697 477438.8048
 0 0 0
 3226.786941 -3226.788515 477442.1923
 2080.164921 -3713.566255 477445.0268
 731.2777252 -3886.570223 477447.6213
 -731.2664357 -3886.570243 477447.6213
 -2080.153639 -3713.566179 477445.0269
 -3226.775642 -3226.788446 477442.1924
 0 0 -0
 0 0 0
 0 0 0
 1541.446193 -4656.502014 477438.8047
 602.6242945 -4724.672004 477440.243
 -602.6130482 -4724.671974 477440.243
 -1541.434956 -4656.501972 477438.8047
 0 0 -0
 0 0 -0
 0 0 0
 0 0 0
 1175.276417 3595.271062 477449.0172
 460.5066684 3648.515239 477449.8377
 -460.4960753 3648.51526 477449.8378
 -1175.265841 3595.271056 477449.0172
 0 0 -0
 0 0 -0
 0 0 0
 2484.437867 2484.425909 477451.0724
 1601.131656 2871.873919 477452.6783
 563.7529594 3013.605529 477454.1566
 -563.7423852 3013.605481 477454.1566
 -1601.121086 2871.873986 477452.6783
 -2484.427322 2484.425934 477451.0724
 0 0 -0
 3595.282976 1175.26444 477449.0172
 2871.885884 1601.119633 477452.6783
 1857.082756 1857.070833 477456.7769
 644.1675756 1967.479332 477459.5118
 -644.1570235 1967.479429 477459.5118
 -1857.072223 1857.070801 477456.777
 -2871.875361 1601.119729 477452.6783
 -3595.272478 1175.264493 477449.0172
 3648.527146 460.4946274 477449.8377
 3013.617424 563.7410132 477454.1565
 1967.491333 644.1555066 477459.5117
 682.54252 682.5306397 477463.0243
 -682.5320156 682.5305594 477463.0243
 -1967.480834 644.1556316 477459.5118
 -3013.606944 563.7410263 477454.1566
 -3648.516679 460.4947228 477449.8377
 3648.527139 -460.5080837 477449.8377
 3013.617409 -563.7544749 477454.1565
 1967.491284 -644.1689412 477459.5117
 682.5425407 -682.5440517 477463.0243
 -682.5320894 -682.5439476 477463.0243
 -1967.480838 -644.1689677 477459.5118
 -3013.60697 -563.7543481 477454.1566
 -3648.516707 -460.5080069 477449.8377
 3595.282954 -1175.277889 477449.0171
 2871.885823 -1601.133054 477452.6782
 1857.082716 -1857.084273 477456.7769
 644.1674485 -1967.492744 477459.5117
 -644.1570531 -1967.492792 477459.5117
 -1857.072328 -1857.084166 477456.7769
 -2871.875425 -1601.133011 477452.6783
 -3595.272542 -1175.277774 477449.0172
 0 0 0
 2484.437789 -2484.439343 477451.0723
 1601.131522 -2871.887319 477452.6782
 563.7528904 -3013.618912 477454.1565
 -563.7425549 -3013.618855 477454.1565
 -1601.121178 -2871.887302 477452.6783
 -2484.427436 -2484.439257 477451.0723
 0 0 -0
 0 0 0
 0 0 0
 1175.276304 -3595.284462 477449.0171
 460.5065118 -3648.528609 477449.8376
 -460.4962071 -3648.528603 477449.8377
 -1175.266012 -3595.284407 477449.0171
 0 0 -0
 0 0 -0
 0 0 0
 0 0 0
 873.8100354 2695.99084 477455.5889
 342.5834563 2735.665949 477456.0399
 -342.5740565 2735.665933 477456.0399
 -873.8006475 2695.990856 477455.5889
 0 0 -0
 0 0 -0
 0 0 0
 1858.392788 1858.381989 477456.7667
 1196.417447 2152.927255 477457.6471
 421.3154759 2261.758868 477458.4571
 -421.306092 2261.758935 477458.4571
 -1196.408076 2152.927239 477457.6471
 -1858.383431 1858.382041 477456.7668
 0 0 -0
 2696.001599 873.7992126 477455.5889
 2152.938056 1196.406625 477457.6471
 1393.177531 1393.166715 477459.9349
 483.664113 1479.27449 477461.4635
 -483.6547619 1479.274411 477461.4635
 -1393.168186 1393.166819 477459.9349
 -2152.928729 1196.406642 477457.6471
 -2695.992288 873.7992833 477455.5889
 2735.676696 342.5726222 477456.0399
 2261.769642 421.3045987 477458.457
 1479.285231 483.6533424 477461.4635
 513.8744415 513.8635969 477463.4469
 -513.865132 513.8637065 477463.447
 -1479.275932 483.6533074 477461.4635
 -2261.76035 421.304711 477458.4571
 -2735.667418 342.5726818 477456.0399
 2735.676681 -342.5849475 477456.0399
 2261.769633 -421.316873 477458.457
 1479.285213 -483.6656659 477461.4634
 513.874393 -513.8758633 477463.4469
 -513.8651377 -513.8759188 477463.4469
 -1479.27596 -483.6655527 477461.4635
 -2261.760384 -421.3168465 477458.4571
 -2735.667435 -342.5848407 477456.0399
 2696.001578 -873.8114922 477455.5889
 2152.937996 -1196.418988 477457.6471
 1393.177453 -1393.178935 477459.9349
 483.6640652 -1479.286767 477461.4634
 -483.6548662 -1479.286702 477461.4635
 -1393.16825 -1393.178934 477459.9349
 -2152.92879 -1196.418878 477457.6471
 -2695.992352 -873.8114005 477455.5889
 0 0 0
 1858.392702 -1858.394251 477456.7667
 1196.417356 -2152.93959 477457.6471
 421.315332 -2261.77111 477458.457
 -421.3061798 -2261.771123 477458.457
 -1196.408207 -2152.939516 477457.6471
 -1858.383532 -1858.394191 477456.7667
 0 0 -0
 0 0 0
 0 0 0
 873.8099088 -2696.003096 477455.5888
 342.5833364 -2735.678205 477456.0399
 -342.5742179 -2735.678177 477456.0399
 -873.8007967 -2696.003059 477455.5889
 0 0 -0
 0 0 -0
 0 0 0
 0 0 0
 633.3234903 1965.459848 477459.5346
 248.3189109 1993.996298 477459.7717
 -248.3109119 1993.996317 477459.7717
 -633.3154996 1965.459847 477459.5346
 0 0 -0
 0 0 -0
 0 0 0
 1352.031944 1352.022409 477460.1715
 869.4666814 1568.139798 477460.6332
 306.081841 1648.119354 477461.0574
 -306.0738579 1648.119313 477461.0574
 -869.4587129 1568.139855 477460.6332
 -1352.023986 1352.022439 477460.1715
 0 0 -0
 1965.469345 633.3139498 477459.5346
 1568.149287 869.4571512 477460.6332
 1014.369063 1014.359538 477461.845
 352.1573433 1078.117365 477462.6529
 -352.1493951 1078.117451 477462.6529
 -1014.361119 1014.35952 477461.845
 -1568.141358 869.4572312 477460.6332
 -1965.461433 633.3140068 477459.5346
 1994.005774 248.3093398 477459.7717
 1648.128827 306.072316 477461.0574
 1078.126887 352.1477773 477462.6529
 374.6289098 374.6194613 477463.7061
 -374.6210048 374.6194048 477463.7061
 -1078.118987 352.147875 477462.6529
 -1648.120937 306.0723468 477461.0574
 -1993.997891 248.3094249 477459.7717
 1994.00576 -248.320464 477459.7717
 1648.128822 -306.0834744 477461.0573
 1078.126836 -352.1588652 477462.6529
 374.6289233 -374.6305609 477463.7061
 -374.6210681 -374.6305005 477463.7061
 -1078.118985 -352.15886 477462.6529
 -1648.120971 -306.083373 477461.0574
 -1993.99791 -248.3203857 477459.7717
 1965.46932 -633.3250917 477459.5345
 1568.149228 -869.4682118 477460.6332
 1014.369011 -1014.370726 477461.845
 352.157242 -1078.128442 477462.6529
 -352.1494406 -1078.128447 477462.6529
 -1014.361205 -1014.370653 477461.845
 -1568.141414 -869.4681582 477460.6332
 -1965.46149 -633.324988 477459.5346
 0 0 0
 1352.03186 -1352.033562 477460.1714
 869.4665691 -1568.15085 477460.6332
 306.0817497 -1648.130467 477461.0573
 -306.073992 -1648.130438 477461.0573
 -869.4588116 -1568.15082 477460.6332
 -1352.024084 -1352.033486 477460.1715
 0 0 -0
 0 0 0
 0 0 0
 633.3233738 -1965.47098 477459.5345
 248.3187724 -1994.007383 477459.7717
 -248.3110445 -1994.007372 477459.7717
 -633.3156508 -1965.470934 477459.5345
 0 0 -0
 0 0 -0
 0 0 0
 0 0 0
 443.0986984 1380.572461 477461.7985
 173.7222955 1400.328179 477461.9149
 -173.7158676 1400.328174 477461.9149
 -443.0922807 1380.572477 477461.7985
 0 0 -0
 0 0 -0
 0 0 0
 948.1633463 948.1551562 477462.1171
 609.1794627 1100.429798 477462.3433
 214.3635879 1156.692385 477462.5508
 -214.3571812 1156.692421 477462.5508
 -609.1730607 1100.429806 477462.3433
 -948.156961 948.1552047 477462.1171
 0 0 -0
 1380.580626 443.0904924 477461.7984
 1100.437998 609.1712426 477462.3433
 711.3225309 711.3143574 477462.9403
 246.8745179 756.3167398 477463.3372
 -246.8681422 756.3167177 477463.3372
 -711.3161625 711.3144196 477462.9403
 -1100.431643 609.171286 477462.3433
 -1380.574282 443.0905622 477461.7985
 1400.336327 173.7140723 477461.9149
 1156.70055 214.3553697 477462.5508
 756.324888 246.8663233 477463.3372
 262.7659938 262.7578127 477463.8554
 -262.7596617 262.7578564 477463.8554
 -756.3185616 246.8663434 477463.3372
 -1156.694226 214.3554476 477462.5508
 -1400.330015 173.7141457 477461.9149
 1400.336327 -173.7241119 477461.9149
 1156.700506 -214.3653895 477462.5508
 756.3248924 -246.8763573 477463.3371
 262.7659433 -262.7678056 477463.8554
 -262.7596613 -262.7678033 477463.8554
 -756.3186086 -246.8762976 477463.3372
 -1156.694225 -214.3653264 477462.5508
 -1400.330044 -173.7240205 477461.9149
 1380.580595 -443.1005127 477461.7984
 1100.43795 -609.1812978 477462.3433
 711.3224615 -711.3243426 477462.9403
 246.8744456 -756.326751 477463.3371
 -246.8682109 -756.3267317 477463.3371
 -711.3162262 -711.3243004 477462.9403
 -1100.431704 -609.1812202 477462.3433
 -1380.574331 -443.1004181 477461.7984
 0 0 0
 948.1632632 -948.1651765 477462.1171
 609.1793498 -1100.439853 477462.3433
 214.3634959 -1156.702384 477462.5508
 -214.3573047 -1156.702368 477462.5508
 -609.1731526 -1100.439808 477462.3433
 -948.1570524 -948.1651099 477462.1171
 0 0 -0
 0 0 0
 0 0 0
 443.0985848 -1380.582486 477461.7984
 173.7221618 -1400.338192 477461.9149
 -173.7159951 -1400.338178 477461.9149
 -443.0924235 -1380.582447 477461.7984
 0 0 -0
 0 0 -0
 0 0 0
 0 0 0
 290.7791845 908.3412672 477463.0474
 113.9926921 921.1799205 477463.0978
 -113.9879724 921.1799281 477463.0978
 -290.7744715 908.3412806 477463.0474
 0 0 -0
 0 0 -0
 0 0 0
 623.1139717 623.1070787 477463.1868
 400.0631584 723.4445035 477463.2843
 140.7275203 760.4312975 477463.3737
 -140.7228209 760.4313087 477463.3737
 -400.058464 723.4445353 477463.2843
 -623.1092941 623.1071251 477463.1868
 0 0 -0
 908.3481338 290.7722854 477463.0474
 723.4513713 400.0562662 477463.2843
 467.3217119 467.314812 477463.5426
 162.1346578 496.940426 477463.7139
 -162.129989 496.9404276 477463.7139
 -467.3170546 467.314856 477463.5426
 -723.4467149 400.0563261 477463.2843
 -908.3434992 290.7723583 477463.0474
 921.1867724 113.9857804 477463.0978
 760.4381463 140.7206046 477463.3737
 496.9472607 162.127805 477463.7139
 172.6027867 172.5959121 477463.9376
 -172.5981632 172.5959444 477463.9376
 -496.9426359 162.1278387 477463.7139
 -760.433535 140.7206778 477463.3737
 -921.1821601 113.9858599 477463.0978
 921.1867487 -113.9948979 477463.0978
 760.4381481 -140.7297044 477463.3737
 496.947235 -162.1369051 477463.7139
 172.6027439 -172.6049946 477463.9376
 -172.5981666 -172.6049897 477463.9376
 -496.9426584 -162.1368466 477463.7139
 -760.4335675 -140.7296396 477463.3737
 -921.1821693 -113.9948053 477463.0978
 908.3481076 -290.7813855 477463.0474
 723.4513156 -400.0653993 477463.2843
 467.321624 -467.3239052 477463.5426
 162.1346315 -496.9495026 477463.7139
 -162.1300989 -496.9494796 477463.7139
 -467.3170906 -467.3238671 477463.5426
 -723.4467705 -400.0653178 477463.2843
 -908.3435468 -290.7812931 477463.0474
 0 0 0
 623.1138804 -623.1161872 477463.1868
 400.063088 -723.4536259 477463.2843
 140.7273695 -760.4403901 477463.3737
 -140.7228771 -760.4403807 477463.3737
 -400.058591 -723.4535762 477463.2843
 -623.1093693 -623.1161241 477463.1868
 0 0 -0
 0 0 0
 0 0 0
 290.7790588 -908.3503865 477463.0474
 113.9925882 -921.189025 477463.0977
 -113.9881191 -921.1890078 477463.0978
 -290.7745921 -908.3503525 477463.0474
 0 0 -0
 0 0 -0
 0 0 0
 0 0 0
 164.449183 514.5113903 477463.6945
 64.46315928 521.7204196 477463.7106
 -64.4602434 521.720433 477463.7106
 -164.4462709 514.5114077 477463.6945
 0 0 -0
 0 0 -0
 0 0 0
 352.6862823 352.6806142 477463.7395
 226.3361202 409.5537479 477463.7707
 79.59673937 430.4782739 477463.7993
 -79.5938413 430.4782615 477463.7993
 -226.3332333 409.5537949 477463.7707
 -352.683404 352.6806637 477463.7395
 0 0 -0
 514.5170347 164.443507 477463.6945
 409.5594013 226.3304564 477463.7707
 264.4282311 264.4225921 477463.8536
 91.71724199 281.1909633 477463.9084
 -91.71438086 281.1910243 477463.9084
 -264.425368 264.4226042 477463.8536
 -409.5565577 226.3305341 477463.7707
 -514.5141989 164.4435842 477463.6945
 521.7260401 64.45748032 477463.7106
 430.4838969 79.59106958 477463.7993
 281.1966065 91.71156365 477463.9084
 97.64305277 97.63746983 477463.98
 -97.64023026 97.63743489 477463.98
 -281.1937905 91.71164785 477463.9084
 -430.4810776 79.59112069 477463.7993
 -521.7232325 64.45757187 477463.7106
 521.7260409 -64.46592768 477463.7106
 430.4838535 -79.59953814 477463.7993
 281.1965913 -91.71999153 477463.9084
 97.64304322 -97.64588544 477463.98
 -97.6402671 -97.64583397 477463.98
 -281.1938133 -91.71997319 477463.9084
 -430.4810779 -79.59944251 477463.7993
 -521.7232584 -64.46584385 477463.7106
 514.5169993 -164.4519656 477463.6945
 409.5593538 -226.3388684 477463.7707
 264.4281769 -264.4310705 477463.8536
 91.71714401 -281.1993907 477463.9084
 -91.71441319 -281.1993921 477463.9084
 -264.4254398 -264.431003 477463.8536
 -409.5566084 -226.3388111 477463.7707
 -514.5142385 -164.4518675 477463.6945
 0 0 0
 352.6861996 -352.6890921 477463.7395
 226.3360027 -409.5621796 477463.7707
 79.59667189 -430.4867206 477463.7993
 -79.59397461 -430.4866948 477463.7993
 -226.3333038 -409.5621501 477463.7707
 -352.6834847 -352.6890216 477463.7395
 0 0 -0
 0 0 0
 0 0 0
 164.4490756 -514.5198693 477463.6945
 64.4630264 -521.7288635 477463.7106
 -64.46035274 -521.7288551 477463.7106
 -164.446402 -514.5198329 477463.6945
 0 0 -0
 0 0 -0
 0 0 0
 0 0 0
 53.17611828 166.4911276 477463.968
 20.84387259 168.8135123 477463.9697
 -20.84281609 168.8135136 477463.9697
 -53.17506502 166.4911571 477463.968
 0 0 -0
 0 0 -0
 0 0 0
 114.0860497 114.0814773 477463.9727
 73.19844645 132.4902239 477463.976
 25.73887974 139.256037 477463.979
 -25.73784451 139.2560797 477463.979
 -73.19741477 132.4902409 477463.976
 -114.0850332 114.081542 477463.9727
 0 0 -0
 166.495681 53.1715448 477463.968
 132.4947678 73.19386499 477463.976
 85.52207887 85.51751153 477463.9847
 29.65922657 90.94014014 477463.9904
 -29.65822292 90.9401037 477463.9904
 -85.521082 85.51759419 477463.9847
 -132.4937779 73.19391433 477463.976
 -166.4947075 53.17163576 477463.968
 168.8180406 20.83927813 477463.9697
 139.2605775 25.73431873 477463.979
 90.94464012 29.65468745 477463.9904
 31.57542892 31.57087824 477463.9979
 -31.57446825 31.57095581 477463.9979
 -90.94368012 29.65468856 477463.9904
 -139.2596234 25.73442053 477463.979
 -168.817088 20.83935879 477463.9697
 168.8180208 -20.847397 477463.9697
 139.2605745 -25.74241949 477463.979
 90.94460462 -29.66279581 477463.9904
 31.57541237 -31.57895818 477463.9979
 -31.57449587 -31.57899266 477463.9979
 -90.94368922 -29.66270364 477463.9904
 -139.2596509 -25.74237184 477463.979
 -168.8170988 -20.8472969 477463.9697
 166.4956531 -53.1796485 477463.968
 132.4947051 -73.20200406 477463.976
 85.52201755 -85.52560023 477463.9847
 29.6591628 -90.94822857 477463.9904
 -29.65828803 -90.94817694 477463.9904
 -85.52113892 -85.52558485 477463.9847
 -132.4938199 -73.20191196 477463.976
 -166.4947498 -53.17956272 477463.968
 0 0 0
 114.0859655 -114.0895925 477463.9727
 73.19835172 -132.4983606 477463.976
 25.73877275 -139.2641367 477463.979
 -25.73793413 -139.2641435 477463.979
 -73.19750668 -132.4983035 477463.976
 -114.0851071 -114.0895371 477463.9727
 0 0 -0
 0 0 0
 0 0 0
 53.17600378 -166.4992584 477463.968
 20.84375841 -168.8216301 477463.9697
 -20.84293951 -168.8216116 477463.9697
 -53.17518423 -166.4992337 477463.968
 0 0 -0
 0 0 -0
 0 0 0
 0 0 0
 -53.17600293 -166.4992581 477463.968
 -20.8437593 -168.8216308 477463.9697
 20.84293869 -168.821612 477463.9697
 53.17518115 -166.4992332 477463.968
 0 0 -0
 0 0 -0
 0 0 0
 -114.0859622 -114.0895947 477463.9727
 -73.1983526 -132.4983635 477463.976
 -25.73877101 -139.264137 477463.979
 25.7379299 -139.2641435 477463.979
 73.19750615 -132.4983062 477463.976
 114.0851019 -114.0895392 477463.9727
 0 0 -0
 -166.4956482 -53.17965352 477463.968
 -132.494706 -73.20200595 477463.976
 -85.52201192 -85.52560401 477463.9847
 -29.65916682 -90.9482309 477463.9904
 29.65829023 -90.94818137 477463.9904
 85.52113176 -85.52558732 477463.9847
 132.4938171 -73.2019145 477463.976
 166.4947436 -53.17956776 477463.968
 -168.8180188 -20.84740173 477463.9697
 -139.2605671 -25.74242666 477463.979
 -90.94460798 -29.66279905 477463.9904
 -31.57540783 -31.57896534 477463.9979
 31.57448955 -31.57899563 477463.9979
 90.94368882 -29.66270965 477463.9904
 139.2596446 -25.74237753 477463.979
 168.8170932 -20.84730215 477463.9697
 -168.8180356 20.8392714 477463.9697
 -139.2605777 25.73431113 477463.979
 -90.94463486 29.65467924 477463.9904
 -31.57543309 31.57087302 477463.9979
 31.57447007 31.57094643 477463.9979
 90.94367451 29.65468326 477463.9904
 139.2596183 25.73441156 477463.979
 168.8170825 20.83935278 477463.9697
 -166.4956778 53.17153604 477463.968
 -132.4947639 73.19385724 477463.976
 -85.5220794 85.51750296 477463.9847
 -29.6592239 90.94012916 477463.9904
 29.65821796 90.94009483 477463.9904
 85.52107992 85.51758438 477463.9847
 132.4937735 73.19390746 477463.976
 166.4947014 53.17162719 477463.968
 0 0 0
 -114.0860478 114.0814671 477463.9727
 -73.19844474 132.4902117 477463.976
 -25.73888199 139.2560271 477463.979
 25.73784512 139.2560696 477463.979
 73.19741037 132.4902286 477463.976
 114.085029 114.0815318 477463.9727
 0 0 -0
 0 0 0
 0 0 0
 -53.17611811 166.4911162 477463.968
 -20.84387241 168.8134999 477463.9697
 20.84281351 168.8135007 477463.9697
 53.17506298 166.4911456 477463.968
 0 0 -0
 0 0 -0
 0 0 0
 0 0 0
 -164.4490754 -514.5198835 477463.6945
 -64.46302654 -521.7288752 477463.7106
 64.46035104 -521.728868 477463.7106
 164.4464006 -514.519846 477463.6945
 0 0 -0
 0 0 -0
 0 0 0
 -352.6861991 -352.6891072 477463.7395
 -226.3359994 -409.5621915 477463.7707
 -79.59667361 -430.4867368 477463.7993
 79.59397522 -430.4867086 477463.7993
 226.3332983 -409.5621634 477463.7707
 352.6834824 -352.6890361 477463.7395
 0 0 -0
 -514.5169977 -164.4519817 477463.6945
 -409.5593466 -226.3388862 477463.7707
 -264.4281808 -264.4310862 477463.8536
 -91.71714027 -281.1994058 477463.9084
 91.71440749 -281.1994068 477463.9084
 264.4254416 -264.4310187 477463.8536
 409.556601 -226.3388284 477463.7707
 514.5142343 -164.4518839 477463.6945
 -521.7260358 -64.4659466 477463.7106
 -430.4838561 -79.59955365 477463.7993
 -281.1965846 -91.7200109 477463.9084
 -97.64304807 -97.64590088 477463.98
 97.64026988 -97.64585311 477463.98
 281.1938065 -91.71998969 477463.9084
 430.4810756 -79.59946 477463.7993
 521.723253 -64.46586162 477463.7106
 -521.7260379 64.45746094 477463.7106
 -430.4838923 79.59105044 477463.7993
 -281.1966083 91.71154519 477463.9084
 -97.64304933 97.63744864 477463.98
 97.64022513 97.6374175 477463.98
 281.1937887 91.71162683 477463.9084
 430.4810742 79.59110401 477463.7993
 521.7232269 64.45755191 477463.7106
 -514.5170317 164.4434873 477463.6945
 -409.559399 226.3304343 477463.7707
 -264.4282295 264.422571 477463.8536
 -91.71724491 281.190943 477463.9084
 91.71438196 281.1910036 477463.9084
 264.4253647 264.4225833 477463.8536
 409.5565519 226.3305119 477463.7707
 514.5141947 164.4435654 477463.6945
 0 0 0
 -352.6862809 352.6805926 477463.7395
 -226.3361198 409.5537263 477463.7707
 -79.59673768 430.4782513 477463.7993
 79.59383697 430.4782366 477463.7993
 226.3332314 409.553775 477463.7707
 352.6834007 352.6806419 477463.7395
 0 0 -0
 0 0 0
 0 0 0
 -164.4491828 514.5113669 477463.6945
 -64.46316087 521.7203962 477463.7106
 64.46024307 521.7204109 477463.7106
 164.4462682 514.5113833 477463.6945
 0 0 -0
 0 0 -0
 0 0 0
 0 0 0
 -290.7790583 -908.3504115 477463.0474
 -113.9925884 -921.1890525 477463.0977
 113.9881185 -921.1890331 477463.0978
 290.7745903 -908.3503781 477463.0474
 0 0 -0
 0 0 -0
 0 0 0
 -623.113878 -623.1162145 477463.1868
 -400.063089 -723.4536556 477463.2843
 -140.7273687 -760.4404133 477463.3737
 140.7228746 -760.4404082 477463.3737
 400.0585915 -723.4536029 477463.2843
 623.1093657 -623.1161514 477463.1868
 0 0 -0
 -908.3481044 -290.7814154 477463.0474
 -723.4513181 -400.0654257 477463.2843
 -467.3216192 -467.3239325 477463.5426
 -162.1346347 -496.9495325 477463.7139
 162.1301011 -496.949506 477463.7139
 467.3170847 -467.3238956 477463.5426
 723.4467703 -400.0653448 477463.2843
 908.3435429 -290.7813221 477463.0474
 -921.1867486 -113.9949262 477463.0978
 -760.4381422 -140.7297364 477463.3737
 -496.9472391 -162.1369336 477463.7139
 -172.60274 -172.6050231 477463.9376
 172.5981614 -172.6050194 477463.9376
 496.9426595 -162.1368753 477463.7139
 760.4335631 -140.7296684 477463.3737
 921.1821662 -113.994835 477463.0978
 -921.1867697 113.9857495 477463.0978
 -760.4381474 140.7205741 477463.3737
 -496.9472571 162.1277748 477463.7139
 -172.6027908 172.5958809 477463.9376
 172.5981654 172.5959148 477463.9376
 496.9426322 162.1278093 477463.7139
 760.4335316 140.7206449 477463.3737
 921.1821573 113.9858314 477463.0978
 -908.3481323 290.7722537 477463.0474
 -723.45137 400.0562359 477463.2843
 -467.3217127 467.3147795 477463.5426
 -162.1346553 496.9403955 477463.7139
 162.1299845 496.9403938 477463.7139
 467.3170535 467.3148253 477463.5426
 723.4467131 400.0562971 477463.2843
 908.3434954 290.7723267 477463.0474
 0 0 0
 -623.113971 623.1070462 477463.1868
 -400.0631577 723.4444708 477463.2843
 -140.7275234 760.4312639 477463.3737
 140.7228226 760.4312795 477463.3737
 400.0584607 723.4445 477463.2843
 623.1092915 623.1070933 477463.1868
 0 0 -0
 0 0 0
 0 0 0
 -290.779185 908.3412343 477463.0474
 -113.9926918 921.1798878 477463.0978
 113.9879698 921.1798934 477463.0978
 290.7744703 908.3412486 477463.0474
 0 0 -0
 0 0 -0
 0 0 0
 0 0 0
 -443.0985851 -1380.582526 477461.7984
 -173.7221613 -1400.33823 477461.9149
 173.7159939 -1400.338216 477461.9149
 443.0924237 -1380.582486 477461.7984
 0 0 -0
 0 0 -0
 0 0 0
 -948.1632635 -948.1652155 477462.1171
 -609.1793484 -1100.439891 477462.3433
 -214.3634981 -1156.702424 477462.5508
 214.357307 -1156.702407 477462.5508
 609.1731499 -1100.439846 477462.3433
 948.1570522 -948.1651493 477462.1171
 0 0 -0
 -1380.580595 -443.1005515 477461.7984
 -1100.437948 -609.181341 477462.3433
 -711.3224644 -711.3243806 477462.9403
 -246.8744424 -756.3267906 477463.3371
 246.8682068 -756.3267701 477463.3371
 711.3162283 -711.3243408 477462.9403
 1100.431702 -609.181259 477462.3433
 1380.57433 -443.100458 477461.7984
 -1400.336326 -173.7241544 477461.9149
 -1156.700509 -214.3654257 477462.5508
 -756.3248889 -246.8764003 477463.3371
 -262.7659475 -262.7678444 477463.8554
 262.7596644 -262.7678444 477463.8554
 756.3186055 -246.8763356 477463.3372
 1156.694225 -214.3653685 477462.5508
 1400.330043 -173.7240594 477461.9149
 -1400.336329 173.7140324 477461.9149
 -1156.700547 214.3553267 477462.5508
 -756.3248916 246.8662843 477463.3372
 -262.7659911 262.7577711 477463.8554
 262.7596581 262.7578172 477463.8554
 756.3185627 246.8663002 477463.3372
 1156.694225 214.3554116 477462.5508
 1400.330014 173.7141034 477461.9149
 -1380.580625 443.090451 477461.7984
 -1100.438 609.171202 477462.3433
 -711.3225298 711.3143152 477462.9403
 -246.8745204 756.3166996 477463.3372
 246.8681436 756.3166766 477463.3372
 711.31616 711.3143805 477462.9403
 1100.431642 609.171242 477462.3433
 1380.574281 443.0905232 477461.7985
 0 0 0
 -948.1633466 948.1551145 477462.1171
 -609.179464 1100.429758 477462.3433
 -214.3635878 1156.692343 477462.5508
 214.3571791 1156.692378 477462.5508
 609.1730611 1100.429766 477462.3433
 948.1569598 948.1551643 477462.1171
 0 0 -0
 0 0 0
 0 0 0
 -443.0986992 1380.57242 477461.7985
 -173.7222966 1400.328138 477461.9149
 173.7158671 1400.328133 477461.9149
 443.0922795 1380.572435 477461.7985
 0 0 -0
 0 0 -0
 0 0 0
 0 0 0
 -633.3233733 -1965.471031 477459.5345
 -248.3187746 -1994.007434 477459.7717
 248.3110472 -1994.007422 477459.7717
 633.3156503 -1965.470985 477459.5345
 0 0 -0
 0 0 -0
 0 0 0
 -1352.031861 -1352.033613 477460.1714
 -869.4665721 -1568.1509 477460.6332
 -306.0817447 -1648.130518 477461.0573
 306.0739867 -1648.130487 477461.0573
 869.4588156 -1568.150871 477460.6332