# OOMMF OVF 2.0
#
# Segment count: 1
#
# Begin: Segment
# Begin: Header
#
# Title: Oxs_MinDriver::Magnetization
# Desc: Oxs vector field output
# Desc:  MIF source file: F:/Bogdan/UNIC/2022/Master_degree/Samples/Cylinder0_5000 1.mif
# Desc:  Iteration: 919, State id: 4305
# Desc:  Stage: 4, Stage iteration: 44
# Desc:  Stage simulation time: 0 s
# Desc:  Total simulation time: -2 s
# meshunit: m
# meshtype: rectangular
# xbase: -8.9999999999999995e-09
# ybase: -8.9999999999999995e-09
# zbase: -2.0999999999999999e-08
# xnodes: 10
# ynodes: 10
# znodes: 22
# xstepsize: 2.0000000000000001e-09
# ystepsize: 2.0000000000000001e-09
# zstepsize: 2.0000000000000001e-09
# xmin: -1e-08
# ymin: -1e-08
# zmin: -2.1999999999999998e-08
# xmax: 1e-08
# ymax: 1e-08
# zmax: 2.2000000000000005e-08
# valuedim: 3
# valuelabels: Magnetization_x Magnetization_y Magnetization_z
# valueunits: A/m A/m A/m
#
# End: Header
#
# Begin: Data Text
 0 0 0
 0 0 0
 0 0 0
 8332.112578 31437.83024 476355.0252
 3138.201766 31657.47768 476403.0091
 -3138.201639 31657.47768 476403.0091
 -8332.112452 31437.83024 476355.0252
 0 0 -0
 0 0 -0
 0 0 -0
 0 0 0
 23347.64715 23347.6463 476320.9486
 18562.71764 24341.43058 476481.6802
 10987.20789 26430.18457 476605.2852
 3714.184148 26997.54807 476685.6496
 -3714.184021 26997.54806 476685.6496
 -10987.20776 26430.18458 476605.2852
 -18562.71751 24341.43058 476481.6802
 -23347.64702 23347.6463 476320.9486
 0 0 -0
 0 0 0
 24341.43143 18562.71678 476481.6802
 19162.49212 19162.49126 476694.3141
 11882.08122 19984.13415 476897.601
 4018.873263 20347.85858 477013.296
 -4018.873134 20347.85859 477013.296
 -11882.08109 19984.13415 476897.601
 -19162.49199 19162.49127 476694.3141
 -24341.43131 18562.71678 476481.6802
 0 0 -0
 31437.83109 8332.111723 476355.0252
 26430.18543 10987.20703 476605.2852
 19984.13503 11882.08034 476897.601
 12369.90224 12369.90138 477143.4191
 4181.916958 12585.88459 477279.7695
 -4181.916828 12585.88458 477279.7695
 -12369.90211 12369.90139 477143.4191
 -19984.13491 11882.08033 476897.601
 -26430.1853 10987.20704 476605.2852
 -31437.83097 8332.111721 476355.0252
 31657.47853 3138.200908 476403.0091
 26997.54894 3714.183275 476685.6496
 20347.85944 4018.872398 477013.296
 12585.88549 4181.916061 477279.7695
 4254.02241 4254.021543 477426.0968
 -4254.022279 4254.021559 477426.0968
 -12585.88536 4181.916046 477279.7695
 -20347.85931 4018.87241 477013.296
 -26997.54881 3714.183267 476685.6496
 -31657.47841 3138.200911 476403.0091
 31657.47854 -3138.202503 476403.0091
 26997.54892 -3714.184883 476685.6495
 20347.85948 -4018.87402 477013.296
 12585.88544 -4181.917695 477279.7695
 4254.022463 -4254.023182 477426.0968
 -4254.022333 -4254.0232 477426.0968
 -12585.88531 -4181.917679 477279.7695
 -20347.85935 -4018.874033 477013.296
 -26997.54879 -3714.184875 476685.6495
 -31657.47842 -3138.202505 476403.0091
 31437.83109 -8332.113309 476355.0251
 26430.18545 -10987.20863 476605.2852
 19984.13501 -11882.08196 476897.6009
 12369.90228 -12369.903 477143.419
 4181.916911 -12585.88623 477279.7695
 -4181.916781 -12585.88621 477279.7695
 -12369.90215 -12369.90302 477143.419
 -19984.13488 -11882.08195 476897.6009
 -26430.18532 -10987.20864 476605.2852
 -31437.83096 -8332.113307 476355.0251
 0 0 0
 24341.43143 -18562.71838 476481.6801
 19162.49215 -19162.49287 476694.3141
 11882.08119 -19984.13577 476897.6009
 4018.873299 -20347.8602 477013.296
 -4018.87317 -20347.86021 477013.296
 -11882.08106 -19984.13576 476897.6009
 -19162.49202 -19162.49288 476694.3141
 -24341.43131 -18562.71837 476481.6801
 0 0 -0
 0 0 0
 23347.64717 -23347.64788 476320.9485
 18562.71764 -24341.43217 476481.6801
 10987.20791 -26430.18617 476605.2851
 3714.184128 -26997.54967 476685.6495
 -3714.184 -26997.54966 476685.6495
 -10987.20778 -26430.18618 476605.2851
 -18562.71751 -24341.43216 476481.6801
 -23347.64704 -23347.64788 476320.9485
 0 0 -0
 0 0 0
 0 0 0
 0 0 0
 8332.112578 -31437.83182 476355.0251
 3138.201775 -31657.47926 476403.009
 -3138.201648 -31657.47927 476403.009
 -8332.112452 -31437.83182 476355.0251
 0 0 -0
 0 0 -0
 0 0 -0
 0 0 0
 0 0 0
 0 0 0
 6973.608704 27156.70539 476640.067
 2685.395418 27360.01836 476671.8886
 -2685.395297 27360.01835 476671.8886
 -6973.608583 27156.70539 476640.067
 0 0 -0
 0 0 -0
 0 0 -0
 0 0 0
 20131.9517 20131.95087 476614.3938
 16219.77418 21067.92687 476723.1195
 9577.040753 23172.9128 476805.1674
 3257.520628 23818.53998 476858.4035
 -3257.520504 23818.53999 476858.4035
 -9577.040632 23172.9128 476805.1674
 -16219.77406 21067.92687 476723.1195
 -20131.95158 20131.95087 476614.3938
 0 0 -0
 0 0 0
 21067.92769 16219.77336 476723.1195
 16904.82344 16904.82258 476865.1017
 10572.19765 17801.00691 477014.9097
 3591.38556 18219.693 477102.7311
 -3591.385437 18219.69298 477102.7311
 -10572.19752 17801.00693 477014.9097
 -16904.82332 16904.82256 476865.1017
 -21067.92757 16219.77336 476723.1195
 0 0 -0
 27156.70621 6973.607879 476640.0669
 23172.91366 9577.0399 476805.1674
 17801.00772 10572.19683 477014.9097
 11119.86196 11119.86107 477204.9546
 3774.698886 11366.08184 477313.7701
 -3774.69876 11366.08188 477313.7701
 -11119.86184 11119.86105 477204.9546
 -17801.00759 10572.19685 477014.9097
 -23172.91354 9577.039887 476805.1674
 -27156.70609 6973.607882 476640.0669
 27360.01919 2685.394579 476671.8885
 23818.5408 3257.519804 476858.4035
 18219.69389 3591.384679 477102.7311
 11366.08265 3774.698075 477313.7701
 3856.472447 3856.471535 477432.8503
 -3856.472323 3856.471496 477432.8503
 -11366.08252 3774.698111 477313.7701
 -18219.69377 3591.38465 477102.7311
 -23818.54067 3257.519822 476858.4035
 -27360.01907 2685.394572 476671.8885
 27360.01918 -2685.396128 476671.8885
 23818.54086 -3257.521364 476858.4035
 18219.69379 -3591.386256 477102.7311
 11366.08278 -3774.699659 477313.7701
 3856.472299 -3856.473129 477432.8503
 -3856.472172 -3856.473086 477432.8503
 -11366.08266 -3774.699698 477313.7701
 -18219.69366 -3591.386224 477102.7311
 -23818.54074 -3257.521384 476858.4035
 -27360.01906 -2685.396122 476671.8885
 27156.70623 -6973.60942 476640.0669
 23172.91361 -9577.041459 476805.1674
 17801.00781 -10572.19839 477014.9097
 11119.86185 -11119.86266 477204.9545
 3774.699016 -11366.08343 477313.7701
 -3774.698892 -11366.08346 477313.7701
 -11119.86173 -11119.86262 477204.9545
 -17801.00769 -10572.19842 477014.9097
 -23172.91349 -9577.041442 476805.1674
 -27156.70611 -6973.609424 476640.0669
 0 0 0
 21067.92772 -16219.77491 476723.1195
 16904.82338 -16904.82414 476865.1016
 10572.19773 -17801.00847 477014.9097
 3591.385462 -18219.69458 477102.7311
 -3591.385338 -18219.69455 477102.7311
 -10572.19761 -17801.0085 477014.9097
 -16904.82326 -16904.82412 476865.1016
 -21067.9276 -16219.77492 476723.1195
 0 0 -0
 0 0 0
 20131.95171 -20131.95241 476614.3937
 16219.77422 -21067.92841 476723.1194
 9577.040709 -23172.91436 476805.1674
 3257.520687 -23818.54153 476858.4034
 -3257.520565 -23818.54155 476858.4034
 -9577.040586 -23172.91435 476805.1674
 -16219.77409 -21067.92842 476723.1194
 -20131.95159 -20131.95241 476614.3937
 0 0 -0
 0 0 0
 0 0 0
 0 0 0
 6973.608721 -27156.70693 476640.0669
 2685.395402 -27360.0199 476671.8885
 -2685.39528 -27360.01989 476671.8885
 -6973.6086 -27156.70694 476640.0669
 0 0 -0
 0 0 -0
 0 0 -0
 0 0 0
 0 0 0
 0 0 0
 5550.878932 22026.30377 476923.3701
 2150.71215 22197.9032 476942.8675
 -2150.712036 22197.9032 476942.8675
 -5550.878819 22026.30377 476923.3701
 0 0 -0
 0 0 -0
 0 0 -0
 0 0 0
 16322.10747 16322.10669 476905.7024
 13220.16232 17116.30494 476973.9308
 7794.271485 18935.58533 477024.6998
 2656.736452 19535.78616 477056.7745
 -2656.736339 19535.78615 477056.7745
 -7794.271369 18935.58534 477024.6998
 -13220.16221 17116.30493 476973.9309
 -16322.10735 16322.10669 476905.7024
 0 0 -0
 0 0 0
 17116.30574 13220.16151 476973.9308
 13866.22203 13866.22126 477061.1356
 8728.48284 14712.65496 477157.4401
 2975.81341 15127.60306 477215.016
 -2975.813293 15127.60308 477215.016
 -8728.482729 14712.65495 477157.4401
 -13866.22191 13866.22127 477061.1356
 -17116.30563 13220.16151 476973.9308
 0 0 -0
 22026.30457 5550.878137 476923.3701
 18935.5861 7794.270711 477024.6998
 14712.65582 8728.481992 477157.4401
 9269.119847 9269.119102 477284.0225
 3159.99097 9520.52868 477358.6129
 -3159.990856 9520.528655 477358.6129
 -9269.119727 9269.119125 477284.0225
 -14712.65571 8728.481972 477157.4401
 -18935.58598 7794.270723 477024.6998
 -22026.30446 5550.878133 476923.3701
 22197.90398 2150.711363 476942.8674
 19535.787 2656.735623 477056.7745
 15127.60381 2975.812652 477215.0159
 9520.52957 3159.990087 477358.6129
 3244.509455 3244.508724 477441.9521
 -3244.509336 3244.50876 477441.9521
 -9520.529459 3159.990053 477358.6129
 -15127.60369 2975.812679 477215.0159
 -19535.78689 2656.735605 477056.7745
 -22197.90387 2150.711369 476942.8674
 22197.90401 -2150.712842 476942.8674
 19535.78691 -2656.737114 477056.7745
 15127.60395 -2975.81415 477215.0159
 9520.529387 -3159.9916 477358.6129
 3244.509664 -3244.510237 477441.9521
 -3244.509549 -3244.510278 477441.9521
 -9520.529267 -3159.991561 477358.6129
 -15127.60384 -2975.814182 477215.0159
 -19535.7868 -2656.737093 477056.7745
 -22197.9039 -2150.712849 476942.8674
 22026.30456 -5550.879611 476923.3701
 18935.58617 -7794.272193 477024.6998
 14712.6557 -8728.483494 477157.4401
 9269.120008 -9269.120599 477284.0225
 3159.990787 -9520.530197 477358.6128
 -3159.99067 -9520.530158 477358.6128
 -9269.119895 -9269.120635 477284.0225
 -14712.65558 -8728.483465 477157.4401
 -18935.58606 -7794.272211 477024.6998
 -22026.30445 -5550.879606 476923.3701
 0 0 0
 17116.30572 -13220.163 476973.9308
 13866.22212 -13866.22275 477061.1355
 8728.482727 -14712.65647 477157.4401
 2975.813548 -15127.60456 477215.0159
 -2975.813434 -15127.60459 477215.0159
 -8728.482609 -14712.65644 477157.4401
 -13866.222 -13866.22277 477061.1355
 -17116.30561 -13220.16299 476973.9308
 0 0 -0
 0 0 0
 16322.1075 -16322.10816 476905.7023
 13220.1623 -17116.30642 476973.9308
 7794.271555 -18935.58681 477024.6998
 2656.736372 -19535.78765 477056.7745
 -2656.736257 -19535.78763 477056.7745
 -7794.271441 -18935.58682 477024.6998
 -13220.16218 -17116.30641 476973.9308
 -16322.10739 -16322.10817 476905.7023
 0 0 -0
 0 0 0
 0 0 0
 0 0 0
 5550.878923 -22026.30526 476923.3701
 2150.712178 -22197.90468 476942.8674
 -2150.712064 -22197.90468 476942.8674
 -5550.878809 -22026.30525 476923.3701
 0 0 -0
 0 0 -0
 0 0 -0
 0 0 0
 0 0 0
 0 0 0
 4292.238671 17216.85946 477134.1821
 1665.316733 17350.73118 477145.7326
 -1665.316629 17350.73119 477145.7326
 -4292.238567 17216.85946 477134.1821
 0 0 -0
 0 0 -0
 0 0 -0
 0 0 0
 12759.15498 12759.15424 477122.9184
 10349.40912 13385.84549 477164.1019
 6093.299487 14841.52295 477194.3757
 2077.611028 15337.07316 477213.0855
 -2077.610922 15337.07315 477213.0855
 -6093.299386 14841.52296 477194.3757
 -10349.40901 13385.84549 477164.1019
 -12759.15488 12759.15424 477122.9184
 0 0 -0
 0 0 0
 13385.84622 10349.40839 477164.1019
 10886.26423 10886.26344 477215.7267
 6875.182499 11598.10569 477273.5977
 2348.681085 11957.07877 477308.4781
 -2348.680982 11957.07878 477308.4781
 -6875.182389 11598.10568 477273.5977
 -10886.26413 10886.26345 477215.7267
 -13385.84611 10349.40839 477164.1019
 0 0 -0
 17216.86021 4292.237934 477134.1821
 14841.52374 6093.298707 477194.3757
 11598.10638 6875.1818 477273.5977
 7344.845325 7344.844483 477351.0006
 2511.24511 7569.207464 477397.3943
 -2511.245002 7569.207457 477397.3943
 -7344.845227 7344.844487 477351.0006
 -11598.10627 6875.181799 477273.5977
 -14841.52364 6093.298705 477194.3757
 -17216.8601 4292.237935 477134.1821
 17350.73195 1665.315973 477145.7326
 15337.07387 2077.610309 477213.0855
 11957.07961 2348.680263 477308.4781
 7569.208129 2511.244436 477397.3942
 2587.80006 2587.799187 477449.9742
 -2587.799957 2587.799184 477449.9742
 -7569.208016 2511.244441 477397.3943
 -11957.07951 2348.680256 477308.4781
 -15337.07376 2077.610316 477213.0855
 -17350.73185 1665.31597 477145.7326
 17350.73192 -1665.317371 477145.7326
 15337.07396 -2077.611712 477213.0855
 11957.07946 -2348.681681 477308.4781
 7569.208324 -2511.245853 477397.3942
 2587.799837 -2587.800617 477449.9742
 -2587.799729 -2587.800605 477449.9742
 -7569.208225 -2511.245866 477397.3942
 -11957.07935 -2348.681667 477308.4781
 -15337.07386 -2077.611722 477213.0855
 -17350.73182 -1665.317367 477145.7326
 17216.86023 -4292.239325 477134.1821
 14841.52367 -6093.300115 477194.3757
 11598.10651 -6875.183202 477273.5977
 7344.845159 -7344.845912 477351.0006
 2511.245305 -7569.208875 477397.3942
 -2511.245202 -7569.208889 477397.3942
 -7344.845049 -7344.845897 477351.0006
 -11598.10641 -6875.183216 477273.5977
 -14841.52357 -6093.300105 477194.3757
 -17216.86013 -4292.239327 477134.1821
 0 0 0
 13385.84627 -10349.40979 477164.1019
 10886.26416 -10886.26486 477215.7267
 6875.182626 -11598.10709 477273.5977
 2348.68094 -11957.0802 477308.4781
 -2348.680834 -11957.08019 477308.4781
 -6875.182524 -11598.1071 477273.5977
 -10886.26405 -10886.26484 477215.7267
 -13385.84616 -10349.40979 477164.1019
 0 0 -0
 0 0 0
 12759.15499 -12759.15564 477122.9183
 10349.40917 -13385.84688 477164.1019
 6093.299424 -14841.52436 477194.3757
 2077.611116 -15337.07456 477213.0855
 -2077.611012 -15337.07456 477213.0855
 -6093.299319 -14841.52436 477194.3757
 -10349.40906 -13385.84689 477164.1019
 -12759.15489 -12759.15563 477122.9183
 0 0 -0
 0 0 0
 0 0 0
 0 0 0
 4292.238695 -17216.86087 477134.1821
 1665.316709 -17350.73259 477145.7326
 -1665.316605 -17350.73258 477145.7326
 -4292.238592 -17216.86087 477134.1821
 0 0 -0
 0 0 -0
 0 0 -0
 0 0 0
 0 0 0
 0 0 0
 3247.396701 13111.95771 477272.8803
 1260.207566 13210.98464 477279.5335
 -1260.207474 13210.98463 477279.5335
 -3247.39661 13111.95772 477272.8803
 0 0 -0
 0 0 -0
 0 0 -0
 0 0 0
 9719.122998 9719.122314 477266.1193
 7882.757955 10191.49188 477290.1287
 4634.39462 11307.54327 477307.5876
 1579.67113 11691.27642 477318.2272
 -1579.67104 11691.27645 477318.2272
 -4634.394524 11307.54324 477307.5876
 -7882.757867 10191.49189 477290.1287
 -9719.122905 9719.122309 477266.1193
 0 0 -0
 0 0 0
 10191.49259 7882.757241 477290.1287
 8297.876408 8297.87575 477319.7689
 5246.295263 8855.301074 477353.0468
 1793.642287 9140.410067 477373.1319
 -1793.642191 9140.410021 477373.1319
 -5246.295178 8855.301111 477353.0468
 -8297.876308 8297.875725 477319.7689
 -10191.49251 7882.757249 477290.1287
 0 0 -0
 13111.95842 3247.396 477272.8803
 11307.54393 4634.39395 477307.5876
 8855.301845 5246.2945 477353.0468
 5621.177195 5621.176571 477397.8174
 1924.744308 5803.110639 477424.8533
 -1924.744219 5803.110688 477424.8533
 -5621.177091 5621.176531 477397.8174
 -8855.301765 5246.294527 477353.0468
 -11307.54383 4634.393936 477307.5876
 -13111.95833 3247.396002 477272.8803
 13210.98533 1260.206878 477279.5334
 11691.27718 1579.67039 477318.2272
 9140.410693 1793.641645 477373.1319
 5803.111453 1924.743504 477424.8533
 1987.503893 1987.503294 477455.7267
 -1987.503796 1987.503251 477455.7267
 -5803.111371 1924.743538 477424.8533
 -9140.410587 1793.641623 477373.1319
 -11691.2771 1579.670401 477318.2272
 -13210.98523 1260.206874 477279.5334
 13210.98536 -1260.208187 477279.5334
 11691.27711 -1579.671709 477318.2272
 9140.410817 -1793.642964 477373.1319
 5803.111291 -1924.744838 477424.8533
 1987.504083 -1987.50462 477455.7267
 -1987.503993 -1987.504589 477455.7267
 -5803.111189 -1924.744863 477424.8533
 -9140.410736 -1793.642949 477373.1319
 -11691.277 -1579.671716 477318.2272
 -13210.98527 -1260.208185 477279.5334
 13111.95842 -3247.397306 477272.8803
 11307.544 -4634.395259 477307.5875
 8855.301746 -5246.295832 477353.0468
 5621.177338 -5621.177884 477397.8174
 1924.744143 -5803.111983 477424.8533
 -1924.744048 -5803.112004 477424.8533
 -5621.177252 -5621.177868 477397.8174
 -8855.301646 -5246.29584 477353.0468
 -11307.54391 -4634.395256 477307.5875
 -13111.95833 -3247.397306 477272.8803
 0 0 0
 10191.49258 -7882.758564 477290.1286
 8297.876487 -8297.877057 477319.7689
 5246.295165 -8855.302411 477353.0468
 1793.642412 -9140.411377 477373.1319
 -1793.64232 -9140.411361 477373.1319
 -5246.295069 -8855.302422 477353.0468
 -8297.876399 -8297.877052 477319.7689
 -10191.49248 -7882.758564 477290.1286
 0 0 -0
 0 0 0
 9719.123032 -9719.123625 477266.1192
 7882.757941 -10191.4932 477290.1286
 4634.394683 -11307.54458 477307.5875
 1579.67106 -11691.27775 477318.2271
 -1579.670967 -11691.27776 477318.2271
 -4634.394592 -11307.54457 477307.5875
 -7882.757848 -10191.4932 477290.1286
 -9719.122941 -9719.123624 477266.1192
 0 0 -0
 0 0 0
 0 0 0
 0 0 0
 3247.396696 -13111.95904 477272.8803
 1260.207592 -13210.98596 477279.5334
 -1260.2075 -13210.98595 477279.5334
 -3247.396604 -13111.95904 477272.8803
 0 0 -0
 0 0 -0
 0 0 -0
 0 0 0
 0 0 0
 0 0 0
 2408.949425 9767.948266 477357.9951
 934.7652087 9838.687594 477361.7054
 -934.7651307 9838.687609 477361.7054
 -2408.949345 9767.948256 477357.9951
 0 0 -0
 0 0 -0
 0 0 -0
 0 0 0
 7242.13091 7242.130264 477354.1394
 5869.76139 7587.328964 477367.6252
 3446.156906 8418.415228 477377.3409
 1174.020351 8704.107022 477383.2124
 -1174.020269 8704.106975 477383.2124
 -3446.156833 8418.415264 477377.3409
 -5869.761306 7587.328946 477367.6253
 -7242.130833 7242.130268 477354.1394
 0 0 -0
 0 0 0
 7587.329595 5869.760754 477367.6252
 6176.924401 6176.923717 477384.0828
 3905.052186 6594.106279 477402.4923
 1335.180164 6808.735117 477413.5835
 -1335.180089 6808.735188 477413.5835
 -3905.052096 6594.106221 477402.4923
 -6176.924334 6176.923754 477384.0828
 -7587.329511 5869.760739 477367.6252
 0 0 -0
 9767.948912 2408.948786 477357.995
 8418.415914 3446.156231 477377.3409
 6594.10688 3905.05158 477402.4923
 4188.391563 4188.390836 477427.2573
 1434.84014 4326.917494 477442.2377
 -1434.840054 4326.917414 477442.2377
 -4188.391498 4188.390903 477427.2573
 -6594.106783 3905.051532 477402.4923
 -8418.415847 3446.156255 477377.3409
 -9767.948829 2408.94878 477357.995
 9838.688263 934.7645503 477361.7053
 8704.107635 1174.019727 477383.2124
 6808.735845 1335.179455 477413.5835
 4326.918066 1434.839558 477442.2377
 1482.93926 1482.938504 477459.3942
 -1482.939186 1482.938579 477459.3942
 -4326.917971 1434.839494 477442.2377
 -6808.735784 1335.1795 477413.5835
 -8704.107541 1174.019702 477383.2124
 -9838.688189 934.7645572 477361.7053
 9838.688253 -934.7657759 477361.7053
 8704.10768 -1174.020953 477383.2124
 6808.735774 -1335.180695 477413.5835
 4326.918168 -1434.840791 477442.2377
 1482.939139 -1482.939752 477459.3942
 -1482.939053 -1482.939815 477459.3942
 -4326.918101 -1434.840739 477442.2377
 -6808.735678 -1335.180731 477413.5835
 -8704.107614 -1174.020934 477383.2124
 -9838.68817 -934.7657813 477361.7053
 9767.948929 -2408.950005 477357.995
 8418.415887 -3446.157467 477377.3409
 6594.106946 -3905.052801 477402.4923
 4188.39148 -4188.392089 477427.2573
 1434.840246 -4326.918718 477442.2377
 -1434.84017 -4326.91867 477442.2377
 -4188.391391 -4188.392128 477427.2573
 -6594.106878 -3905.052776 477402.4923
 -8418.415799 -3446.157479 477377.3409
 -9767.948852 -2408.950002 477357.995
 0 0 0
 7587.329626 -5869.761982 477367.6252
 6176.924371 -6176.924962 477384.0828
 3905.052254 -6594.107498 477402.4923
 1335.180088 -6808.736374 477413.5835
 -1335.180007 -6808.736409 477413.5835
 -3905.05218 -6594.107471 477402.4923
 -6176.924285 -6176.924978 477384.0828
 -7587.329551 -5869.761976 477367.6252
 0 0 -0
 0 0 0
 7242.130929 -7242.131495 477354.1394
 5869.761421 -7587.330187 477367.6252
 3446.156879 -8418.416474 477377.3409
 1174.020398 -8704.108245 477383.2124
 -1174.02032 -8704.108223 477383.2124
 -3446.156797 -8418.41649 477377.3409
 -5869.761344 -7587.330179 477367.6252
 -7242.130849 -7242.131496 477354.1394
 0 0 -0
 0 0 0
 0 0 0
 0 0 0
 2408.949442 -9767.949501 477357.995
 934.7651982 -9838.688833 477361.7053
 -934.7651191 -9838.68884 477361.7053
 -2408.949364 -9767.949497 477357.995
 0 0 -0
 0 0 -0
 0 0 -0
 0 0 0
 0 0 0
 0 0 0
 1746.972198 7103.66629 477407.9569
 677.7878683 7152.849548 477409.9377
 -677.7878022 7152.849532 477409.9377
 -1746.972135 7103.666299 477407.9569
 0 0 -0
 0 0 -0
 0 0 -0
 0 0 0
 5267.990414 5267.989822 477405.8733
 4266.114457 5513.660782 477413.1032
 2501.571876 6116.121859 477418.2721
 851.7345788 6322.282725 477421.3805
 -851.7345169 6322.282772 477421.3805
 -2501.571803 6116.121822 477418.2721
 -4266.114398 5513.660799 477413.1032
 -5267.990346 5267.989815 477405.8733
 0 0 -0
 0 0 0
 5513.661389 4266.11385 477413.1032
 4485.976905 4485.976318 477421.8505
 2834.3264 4787.517219 477431.5842
 968.8123508 4942.866212 477437.4313
 -968.8122791 4942.866141 477437.4313
 -2834.326349 4787.517277 477431.5842
 -4485.976824 4485.976279 477421.8505
 -5513.661331 4266.113864 477413.1032
 0 0 -0
 7103.666903 1746.971598 477407.9569
 6116.122449 2501.571283 477418.272
 4787.517854 2834.325772 477431.5842
 3040.004931 3040.004358 477444.644
 1041.359512 3140.786529 477452.5341
 -1041.359454 3140.786609 477452.5341
 -3040.004846 3040.00429 477444.644
 -4787.517812 2834.325819 477431.5842
 -6116.122367 2501.571258 477418.272
 -7103.666841 1746.971603 477407.9569
 7152.850149 677.7872682 477409.9377
 6322.283359 851.7339622 477421.3805
 4942.866783 968.8117663 477437.4313
 3140.787189 1041.358862 477452.5341
 1076.470424 1076.469866 477461.573
 -1076.47035 1076.469791 477461.573
 -3140.787144 1041.358926 477452.5341
 -4942.866692 968.8117214 477437.4313
 -6322.283313 851.7339867 477421.3805
 -7152.850077 677.7872609 477409.9377
 7152.850154 -677.7884116 477409.9377
 6322.283356 -851.7351134 477421.3805
 4942.866796 -968.8129138 477437.4313
 3140.787167 -1041.360025 477452.5341
 1076.470463 -1076.471017 477461.573
 -1076.470404 -1076.470955 477461.573
 -3140.787082 -1041.360077 477452.5341
 -4942.866754 -968.8128781 477437.4313
 -6322.283273 -851.7351325 477421.3805
 -7152.850095 -677.7884058 477409.9377
 7103.666911 -1746.97274 477407.9569
 6116.12246 -2501.572424 477418.272
 4787.517851 -2834.326937 477431.5842
 3040.004953 -3040.005498 477444.6439
 1041.359482 -3140.787703 477452.5341
 -1041.35941 -3140.787751 477452.5341
 -3040.004902 -3040.005459 477444.6439
 -4787.517768 -2834.326962 477431.5842
 -6116.122406 -2501.572411 477418.272
 -7103.666842 -1746.972743 477407.9569
 0 0 0
 5513.661402 -4266.115008 477413.1032
 4485.976921 -4485.977458 477421.8505
 2834.326393 -4787.518391 477431.5842
 968.8123742 -4942.867349 477437.4313
 -968.8123119 -4942.867315 477437.4313
 -2834.326319 -4787.518418 477431.5842
 -4485.976865 -4485.977441 477421.8505
 -5513.661331 -4266.115013 477413.1032
 0 0 -0
 0 0 0
 5267.990439 -5267.99097 477405.8733
 4266.11447 -5513.661937 477413.1032
 2501.571889 -6116.123003 477418.272
 851.7345698 -6322.283894 477421.3805
 -851.7345027 -6322.283915 477421.3805
 -2501.571828 -6116.122987 477418.272
 -4266.114401 -5513.661943 477413.1032
 -5267.990376 -5267.990966 477405.8733
 0 0 -0
 0 0 0
 0 0 0
 0 0 0
 1746.972206 -7103.667453 477407.9569
 677.787875 -7152.8507 477409.9377
 -677.7878103 -7152.850693 477409.9377
 -1746.97214 -7103.667456 477407.9569
 0 0 -0
 0 0 -0
 0 0 -0
 0 0 0
 0 0 0
 0 0 0
 1224.62823 4988.937991 477436.3644
 475.0498519 5022.070222 477437.3513
 -475.0498021 5022.070231 477437.3513
 -1224.628177 4988.937985 477436.3644
 0 0 -0
 0 0 -0
 0 0 -0
 0 0 0
 3700.481857 3700.481306 477435.3194
 2994.312372 3869.556608 477438.93
 1754.028171 4290.996303 477441.4959
 596.9016454 4434.38253 477443.0346
 -596.9015898 4434.382501 477443.0346
 -1754.02813 4290.996325 477441.4959
 -2994.312313 3869.556597 477438.93
 -3700.481809 3700.481309 477435.3194
 0 0 -0
 0 0 0
 3869.557169 2994.311808 477438.93
 3145.977371 3145.976823 477443.2709
 1986.193983 3355.66234 477448.0766
 678.6342969 3463.608458 477450.9547
 -678.6342533 3463.608499 477450.9547
 -1986.193913 3355.662306 477448.0766
 -3145.97734 3145.976844 477443.2709
 -3869.557107 2994.3118 477438.93
 0 0 -0
 4988.938558 1224.627671 477436.3644
 4290.99686 1754.027624 477441.4959
 3355.662916 1986.193404 477448.0766
 2129.402804 2129.402255 477454.5032
 729.2035035 2199.544625 477458.3768
 -729.2034417 2199.544582 477458.3768
 -2129.402779 2129.40229 477454.5032
 -3355.662835 1986.19338 477448.0766
 -4290.99683 1754.027635 477441.4959
 -4988.938501 1224.627668 477436.3644
 5022.070787 475.0492974 477437.3513
 4434.383101 596.9010688 477443.0346
 3463.609016 678.6337515 477450.9547
 2199.545201 729.2029215 477458.3768
 753.6744021 753.6738429 477462.8103
 -753.6743616 753.6738782 477462.8103
 -2199.545121 729.2028928 477458.3768
 -3463.608999 678.6337701 477450.9547
 -4434.383023 596.9010596 477443.0346
 -5022.070745 475.0492997 477437.3513
 5022.070802 -475.0503701 477437.3513
 4434.383068 -596.9021413 477443.0346
 3463.609069 -678.6348349 477450.9547
 2199.545148 -729.2039977 477458.3768
 753.6744459 -753.6749322 477462.8103
 -753.6743841 -753.6749559 477462.8103
 -2199.545122 -729.2039794 477458.3768
 -3463.608986 -678.6348454 477450.9547
 -4434.383041 -596.9021369 477443.0346
 -5022.070742 -475.050371 477437.3513
 4988.93856 -1224.628738 477436.3644
 4290.996895 -1754.028705 477441.4959
 3355.662878 -1986.194472 477448.0766
 2129.402856 -2129.403351 477454.5032
 729.2034644 -2199.545693 477458.3768
 -729.2034207 -2199.545679 477458.3768
 -2129.402784 -2129.40336 477454.5032
 -3355.66285 -1986.194468 477448.0766
 -4290.996826 -1754.028706 477441.4959
 -4988.938513 -1224.628738 477436.3644
 0 0 0
 3869.55717 -2994.312884 477438.93
 3145.977412 -3145.977913 477443.2709
 1986.193952 -3355.663407 477448.0766
 678.6343315 -3463.609557 477450.9547
 -678.6342751 -3463.609567 477450.9547
 -1986.193913 -3355.663401 477448.0766
 -3145.977347 -3145.977915 477443.2709
 -3869.557126 -2994.312883 477438.93
 0 0 -0
 0 0 0
 3700.481886 -3700.482387 477435.3193
 2994.312375 -3869.55768 477438.93
 1754.0282 -4290.997396 477441.4959
 596.9016269 -4434.383602 477443.0346
 -596.9015781 -4434.383596 477443.0346
 -1754.028142 -4290.9974 477441.4959
 -2994.312328 -3869.557678 477438.93
 -3700.481832 -3700.482386 477435.3193
 0 0 -0
 0 0 0
 0 0 0
 0 0 0
 1224.628233 -4988.939077 477436.3644
 475.0498621 -5022.071311 477437.3513
 -475.0498104 -5022.071313 477437.3513
 -1224.628184 -4988.939076 477436.3644
 0 0 -0
 0 0 -0
 0 0 -0
 0 0 0
 0 0 0
 0 0 0
 805.5168746 3285.447702 477452.0167
 312.4248573 3306.530727 477452.4485
 -312.4248192 3306.530727 477452.4485
 -805.5168406 3285.447701 477452.0167
 0 0 -0
 0 0 -0
 0 0 -0
 0 0 0
 2437.338255 2437.337734 477451.5578
 1970.912938 2546.840132 477453.1395
 1153.64733 2823.376968 477454.2585
 392.4263943 2916.962637 477454.9284
 -392.426363 2916.962635 477454.9284
 -1153.647281 2823.37697 477454.2585
 -1970.912911 2546.84013 477453.1395
 -2437.338214 2437.337734 477451.5578
 0 0 -0
 0 0 0
 2546.840633 1970.912437 477453.1395
 2069.208944 2069.20838 477455.0325
 1305.48274 2205.946875 477457.1193
 445.8799672 2276.238746 477458.366
 -445.8799206 2276.238755 477458.366
 -1305.482727 2205.946867 477457.1193
 -2069.208882 2069.208387 477455.0325
 -2546.840609 1970.912433 477453.1395
 0 0 -0
 3285.448221 805.5163666 477452.0167
 2823.377526 1153.646772 477454.2585
 2205.947342 1305.482277 477457.1193
 1398.862849 1398.862248 477459.9016
 478.8621976 1444.533929 477461.5747
 -478.8621737 1444.53391 477461.5747
 -1398.862778 1398.862267 477459.9016
 -2205.947344 1305.482262 477457.1193
 -2823.377462 1153.646782 477454.2585
 -3285.448191 805.5163636 477452.0167
 3306.531268 312.4243216 477452.4485
 2916.963127 392.4259146 477454.9284
 2276.239335 445.8793753 477458.366
 1444.534382 478.8617489 477461.5747
 494.8020763 494.801471 477463.4872
 -494.8020248 494.8015023 477463.4872
 -1444.534382 478.8617193 477461.5747
 -2276.239254 445.8794001 477458.366
 -2916.963124 392.4258979 477454.9284
 -3306.531219 312.4243272 477452.4485
 3306.531248 -312.4253305 477452.4485
 2916.9632 -392.426929 477454.9284
 2276.23923 -445.8803874 477458.366
 1444.534505 -478.8627709 477461.5747
 494.8019634 -494.8024861 477463.4872
 -494.8019397 -494.8025254 477463.4872
 -1444.534433 -478.862734 477461.5747
 -2276.239235 -445.8804181 477458.366
 -2916.963131 -392.4269089 477454.9284
 -3306.531222 -312.425337 477452.4485
 3285.448244 -805.517374 477452.0167
 2823.377478 -1153.647781 477454.2585
 2205.947439 -1305.483301 477457.1193
 1398.862745 -1398.863257 477459.9016
 478.8623 -1444.534959 477461.5747
 -478.8622523 -1444.53492 477461.5747
 -1398.862735 -1398.863293 477459.9016
 -2205.94737 -1305.483272 477457.1193
 -2823.377464 -1153.647798 477454.2585
 -3285.4482 -805.5173694 477452.0167
 0 0 0
 2546.840675 -1970.913458 477453.1395
 2069.208894 -2069.209389 477455.0325
 1305.482825 -2205.947905 477457.1193
 445.8798905 -2276.239755 477458.366
 -445.8798606 -2276.239786 477458.366
 -1305.482771 -2205.947877 477457.1193
 -2069.208876 -2069.209409 477455.0325
 -2546.840628 -1970.913448 477453.1395
 0 0 -0
 0 0 0
 2437.338269 -2437.338749 477451.5578
 1970.912977 -2546.841152 477453.1395
 1153.647293 -2823.377981 477454.2585
 392.4264449 -2916.963667 477454.9284
 -392.4264045 -2916.963649 477454.9284
 -1153.647264 -2823.377996 477454.2585
 -1970.912934 -2546.841143 477453.1395
 -2437.338236 -2437.338752 477451.5578
 0 0 -0
 0 0 0
 0 0 0
 0 0 0
 805.5168938 -3285.44873 477452.0167
 312.4248453 -3306.531748 477452.4485
 -312.4248096 -3306.531753 477452.4485
 -805.5168556 -3285.448726 477452.0167
 0 0 -0
 0 0 -0
 0 0 -0
 0 0 0
 0 0 0
 0 0 0
 456.4580369 1863.045174 477460.147
 177.0206441 1874.714462 477460.2867
 -177.0206238 1874.71445 477460.2867
 -456.4580118 1863.04518 477460.147
 0 0 -0
 0 0 -0
 0 0 -0
 0 0 0
 1382.276149 1382.275678 477459.9982
 1117.235458 1443.644789 477460.5104
 653.6238146 1600.03966 477460.8716
 222.2739807 1652.75693 477461.0877
 -222.273952 1652.756965 477461.0877
 -653.6238074 1600.039632 477460.8716
 -1117.235424 1443.644803 477460.5104
 -1382.276132 1382.275672 477459.9982
 0 0 -0
 0 0 0
 1443.645305 1117.234941 477460.5104
 1172.327017 1172.326601 477461.1216