# OOMMF OVF 2.0
#
# Segment count: 1
#
# Begin: Segment
# Begin: Header
#
# Title: Oxs_MinDriver::Magnetization
# Desc: Oxs vector field output
# Desc:  MIF source file: F:/Bogdan/UNIC/2022/Master_degree/Samples/Cylinder0_5000 1.mif
# Desc:  Iteration: 819, State id: 4037
# Desc:  Stage: 1, Stage iteration: 269
# Desc:  Stage simulation time: 0 s
# Desc:  Total simulation time: -2 s
# meshunit: m
# meshtype: rectangular
# xbase: -8.9999999999999995e-09
# ybase: -8.9999999999999995e-09
# zbase: -2.0999999999999999e-08
# xnodes: 10
# ynodes: 10
# znodes: 22
# xstepsize: 2.0000000000000001e-09
# ystepsize: 2.0000000000000001e-09
# zstepsize: 2.0000000000000001e-09
# xmin: -1e-08
# ymin: -1e-08
# zmin: -2.1999999999999998e-08
# xmax: 1e-08
# ymax: 1e-08
# zmax: 2.2000000000000005e-08
# valuedim: 3
# valuelabels: Magnetization_x Magnetization_y Magnetization_z
# valueunits: A/m A/m A/m
#
# End: Header
#
# Begin: Data Text
 0 0 0
 0 0 0
 0 0 0
 9513.951217 36386.73275 475980.4216
 3598.331313 36650.91744 476041.6301
 -3598.331849 36650.91749 476041.6301
 -9513.951744 36386.73277 475980.4215
 0 0 -0
 0 0 -0
 0 0 -0
 0 0 0
 26990.78197 26990.75857 475935.7813
 21531.3524 28181.49689 476145.0151
 12724.76331 30715.52486 476305.0579
 4305.46847 31439.59353 476408.3188
 -4305.469006 31439.59348 476408.3188
 -12724.7639 30715.52499 476305.0579
 -21531.35294 28181.49696 476145.0151
 -26990.78253 26990.75873 475935.7813
 0 0 -0
 0 0 0
 28181.52086 21531.32794 476145.0148
 22303.92725 22303.903 476420.9714
 13871.19625 23354.75106 476690.693
 4699.26593 23836.70763 476845.4672
 -4699.266545 23836.70768 476845.4672
 -13871.19677 23354.75109 476690.693
 -22303.92788 22303.90318 476420.9714
 -28181.52142 21531.32805 476145.0147
 0 0 -0
 36386.75683 9513.928519 475980.4202
 30715.54868 12724.74051 476305.057
 23354.77503 13871.17281 476690.6925
 14515.56486 14515.54239 477022.5033
 4917.646756 14808.29597 477208.9714
 -4917.647343 14808.296 477208.9714
 -14515.56555 14515.54251 477022.5033
 -23354.77558 13871.17288 476690.6925
 -30715.54932 12724.74071 476305.057
 -36386.75744 9513.928691 475980.4201
 36650.94078 3598.309332 476041.6284
 31439.61701 4305.445899 476408.3174
 23836.73061 4699.243554 476845.4662
 14808.31802 4917.625463 477208.971
 5016.532875 5016.51238 477411.2905
 -5016.533555 5016.512472 477411.2905
 -14808.31863 4917.625477 477208.9709
 -23836.73129 4699.243757 476845.4662
 -31439.61764 4305.446021 476408.3174
 -36650.94142 3598.309538 476041.6284
 36650.94039 -3598.353293 476041.6281
 31439.61655 -4305.491437 476408.317
 23836.7305 -4699.288772 476845.4658
 14808.31788 -4917.669063 477208.9705
 5016.532889 -5016.55422 477411.2901
 -5016.533602 -5016.554352 477411.2901
 -14808.31855 -4917.668839 477208.9705
 -23836.73118 -4699.288729 476845.4658
 -31439.61723 -4305.491215 476408.317
 -36650.94105 -3598.353118 476041.6281
 36386.75604 -9513.973156 475980.4193
 30715.54763 -12724.78635 476305.0559
 23354.77415 -13871.22001 476690.6912
 14515.56456 -14515.588 477022.502
 4917.646489 -14808.34133 477208.97
 -4917.647189 -14808.34111 477208.97
 -14515.56534 -14515.58806 477022.5019
 -23354.77483 -13871.2198 476690.6912
 -30715.54832 -12724.78621 476305.0558
 -36386.75671 -9513.972963 475980.4193
 0 0 0
 28181.51946 -21531.37608 476145.0127
 22303.92611 -22303.95096 476420.9693
 13871.19553 -23354.7991 476690.6907
 4699.26573 -23836.75474 476845.4648
 -4699.266512 -23836.75484 476845.4648
 -13871.19622 -23354.79893 476690.6907
 -22303.92686 -22303.95088 476420.9692
 -28181.52018 -21531.37593 476145.0126
 0 0 -0
 0 0 0
 26990.78063 -26990.80567 475935.7787
 21531.35106 -28181.54451 476145.0123
 12724.76246 -30715.57292 476305.0549
 4305.46813 -31439.64164 476408.3156
 -4305.468871 -31439.64158 476408.3156
 -12724.76326 -30715.57288 476305.0549
 -21531.35179 -28181.54439 476145.0123
 -26990.78136 -26990.80553 475935.7787
 0 0 -0
 0 0 0
 0 0 0
 0 0 0
 9513.95049 -36386.78198 475980.4178
 3598.331069 -36650.9647 476041.6264
 -3598.33185 -36650.96469 476041.6264
 -9513.951248 -36386.78194 475980.4178
 0 0 -0
 0 0 -0
 0 0 -0
 0 0 0
 0 0 0
 0 0 0
 8065.542024 31745.14989 476339.2318
 3110.724198 31986.08463 476381.2392
 -3110.72469 31986.08457 476381.2392
 -8065.542522 31745.14998 476339.2318
 0 0 -0
 0 0 -0
 0 0 -0
 0 0 0
 23511.39893 23511.37567 476304.84
 18971.47552 24624.32071 476451.0439
 11185.06634 27142.14666 476560.6671
 3804.655345 27933.01083 476631.0342
 -3804.655883 27933.01101 476631.0342
 -11185.06683 27142.14658 476560.6671
 -18971.47606 24624.3209 476451.0439
 -23511.39945 23511.37577 476304.84
 0 0 -0
 0 0 0
 24624.34459 18971.45201 476451.0436
 19814.81516 19814.79138 476640.9744
 12415.10429 20924.60611 476843.6823
 4221.909792 21453.98357 476963.0734
 -4221.910289 21453.98355 476963.0734
 -12415.10493 20924.60629 476843.6823
 -19814.81566 19814.79135 476640.9743
 -24624.34513 18971.45224 476451.0436
 0 0 -0
 31745.17379 8065.520036 476339.2306
 27142.17011 11185.04365 476560.6663
 20924.62939 12415.0814 476843.6819
 13109.62801 13109.6054 477103.9166
 4457.246751 13428.02932 477254.3266
 -4457.247411 13428.02932 477254.3266
 -13109.62847 13109.60543 477103.9165
 -20924.63006 12415.08165 476843.6818
 -27142.17067 11185.04371 476560.6663
 -31745.17439 8065.520249 476339.2306
 31986.10772 3110.703006 476381.2378
 27933.03404 3804.633157 476631.0331
 21454.00652 4221.887778 476963.0725
 13428.05146 4457.225319 477254.3262
 4564.248645 4564.227628 477420.3669
 -4564.249238 4564.227551 477420.3669
 -13428.05218 4457.22554 477254.3262
 -21454.00706 4221.887768 476963.0725
 -27933.03469 3804.633424 476631.033
 -31986.10832 3110.703162 476381.2378
 31986.10732 -3110.745996 476381.2376
 27933.03372 -3804.678117 476631.0327
 21454.00631 -4221.932609 476963.0721
 13428.05144 -4457.26839 477254.3258
 4564.248466 -4564.270452 477420.3665
 -4564.249117 -4564.270071 477420.3665
 -13428.05213 -4457.268595 477254.3258
 -21454.00698 -4221.932282 476963.0721
 -27933.03434 -3804.67804 476631.0327
 -31986.10796 -3110.745774 476381.2375
 31745.17308 -8065.563689 476339.2299
 27142.169 -11185.08898 476560.6653
 20924.62861 -12415.12723 476843.6807
 13109.62763 -13109.65117 477103.9153
 4457.246495 -13428.07431 477254.3254
 -4457.247259 -13428.0747 477254.3253
 -13109.62825 -13109.65078 477103.9153
 -20924.62929 -12415.12726 476843.6807
 -27142.16971 -11185.08876 476560.6653
 -31745.17371 -8065.563514 476339.2299
 0 0 0
 24624.34337 -18971.49882 476451.0418
 19814.81399 -19814.8386 476640.9724
 12415.10364 -20924.65289 476843.6803
 4221.909546 -21454.03072 476963.0713
 -4221.910228 -21454.03044 476963.0713
 -12415.10443 -20924.65299 476843.6802
 -19814.81471 -19814.83842 476640.9724
 -24624.34404 -18971.49867 476451.0418
 0 0 -0
 0 0 0
 23511.3976 -23511.42162 476304.8378
 18971.47428 -24624.36765 476451.0415
 11185.06544 -27142.19392 476560.6645
 3804.655109 -27933.05786 476631.0315
 -3804.655888 -27933.05788 476631.0315
 -11185.06613 -27142.19383 476560.6645
 -18971.475 -24624.36754 476451.0415
 -23511.39832 -23511.42149 476304.8378
 0 0 -0
 0 0 0
 0 0 0
 0 0 0
 8065.5414 -31745.19829 476339.2286
 3110.723869 -31986.13141 476381.2361
 -3110.724611 -31986.1314 476381.2361
 -8065.542163 -31745.19824 476339.2286
 0 0 -0
 0 0 -0
 0 0 -0
 0 0 0
 0 0 0
 0 0 0
 6506.020278 26055.38956 476708.1494
 2522.735377 26257.50722 476734.78
 -2522.735806 26257.50733 476734.7799
 -6506.020733 26055.38956 476708.1494
 0 0 -0
 0 0 -0
 0 0 -0
 0 0 0
 19290.98755 19290.96522 476683.9495
 15634.84339 20235.76839 476778.7083
 9202.918994 22416.13821 476848.7122
 3135.73532 23142.84778 476892.49
 -3135.735797 23142.84764 476892.49
 -9202.919402 22416.13842 476848.7122
 -15634.84391 20235.76841 476778.7082
 -19290.988 19290.96541 476683.9495
 0 0 -0
 0 0 0
 20235.79075 15634.82059 476778.7081
 16417.30769 16417.2851 476899.1676
 10343.37459 17450.66783 477032.8711
 3528.256461 17962.84406 477112.9415
 -3528.256968 17962.84412 477112.9415
 -10343.3751 17450.66782 477032.8711
 -16417.30814 16417.28535 476899.1676
 -20235.79129 15634.82066 476778.708
 0 0 -0
 26055.41291 6505.999399 476708.1484
 22416.16133 9202.897263 476848.7115
 17450.69066 10343.35272 477032.8707
 11013.45976 11013.43818 477209.8901
 3758.448422 11328.70016 477314.787
 -3758.44891 11328.70026 477314.787
 -11013.46037 11013.43829 477209.8901
 -17450.69118 10343.35273 477032.8707
 -22416.16186 9202.897531 476848.7115
 -26055.41347 6505.999567 476708.1483
 26257.53002 2522.714924 476734.7788
 23142.87033 3135.714214 476892.4891
 17962.8668 3528.23492 477112.9408
 11328.7214 3758.427667 477314.7867
 3865.349984 3865.329266 477432.7069
 -3865.3506 3865.329375 477432.7069
 -11328.7219 3758.427637 477314.7867
 -17962.86743 3528.23519 477112.9408
 -23142.87088 3135.714289 476892.4891
 -26257.53059 2522.715148 476734.7788
 26257.52974 -2522.75613 476734.7786
 23142.8699 -3135.756523 476892.4888
 17962.8667 -3528.277645 477112.9405
 11328.72138 -3758.469672 477314.7864
 3865.349723 -3865.370228 477432.7065
 -3865.350356 -3865.37056 477432.7065
 -11328.72201 -3758.469291 477314.7863
 -17962.86727 -3528.2777 477112.9405
 -23142.87056 -3135.756256 476892.4888
 -26257.53031 -2522.755969 476734.7786
 26055.4123 -6506.040952 476708.1478
 22416.16059 -9202.940131 476848.7107
 17450.68998 -10343.39655 477032.8698
 11013.45933 -11013.48088 477209.8891
 3758.44834 -11328.74314 477314.786
 -3758.44898 -11328.74268 477314.786
 -11013.45998 -11013.4811 477209.8891
 -17450.69073 -10343.39627 477032.8698
 -22416.16112 -9202.940006 476848.7107
 -26055.41295 -6506.040758 476708.1478
 0 0 0
 20235.78973 -15634.86547 476778.7066
 16417.30695 -16417.32979 476899.1661
 10343.37408 -17450.7133 477032.8694
 3528.256136 -17962.889 477112.9398
 -3528.256837 -17962.88919 477112.9398
 -10343.37481 -17450.71308 477032.8694
 -16417.3075 -16417.3297 476899.1661
 -20235.79048 -15634.86533 476778.7066
 0 0 -0
 0 0 0
 19290.98651 -19291.00886 476683.9478
 15634.84238 -20235.81272 476778.7064
 9202.91838 -22416.18372 476848.7101
 3135.735076 -23142.89317 476892.4878
 -3135.735803 -23142.89317 476892.4878
 -9202.919044 -22416.18364 476848.7101
 -15634.84315 -20235.81263 476778.7064
 -19290.98715 -19291.00871 476683.9478
 0 0 -0
 0 0 0
 0 0 0
 0 0 0
 6506.019703 -26055.43608 476708.1468
 2522.73516 -26257.55231 476734.7775
 -2522.735889 -26257.55225 476734.7775
 -6506.020432 -26055.43607 476708.1468
 0 0 -0
 0 0 -0
 0 0 -0
 0 0 0
 0 0 0
 0 0 0
 5093.442283 20607.94362 476991.8666
 1977.317752 20766.02451 477008.1066
 -1977.318129 20766.02444 477008.1066
 -5093.44262 20607.94372 476991.8666
 0 0 -0
 0 0 -0
 0 0 -0
 0 0 0
 15258.70709 15258.6856 476976.1165
 12380.24485 16008.92397 477034.9203
 7276.217649 17767.17715 477077.8295
 2479.57128 18368.16631 477104.1118
 -2479.571637 18368.1665 477104.1118
 -7276.218113 17767.17709 477077.8295
 -12380.24521 16008.92416 477034.9203
 -15258.70752 15258.68572 476976.1164
 0 0 -0
 0 0 0
 16008.9455 12380.22372 477034.9201
 13029.74637 13029.72543 477108.293
 8231.014744 13897.66021 477190.7132
 2812.333265 14337.92188 477240.386
 -2812.333687 14337.92185 477240.386
 -8231.015134 13897.66037 477190.7132
 -13029.74685 13029.72545 477108.293
 -16008.94589 12380.22395 477034.9201
 0 0 -0
 20607.9661 5093.422747 476991.8658
 17767.19889 7276.19749 477077.829
 13897.68141 8230.994112 477190.7129
 8809.252314 8809.231916 477301.4412
 3013.593551 9087.23118 477368.0046
 -3013.594047 9087.231146 477368.0046
 -8809.252727 8809.231984 477301.4412
 -13897.68191 8230.994342 477190.7129
 -17767.19936 7276.197572 477077.8289
 -20607.9666 5093.422972 476991.8658
 20766.04672 1977.298522 477008.1057
 18368.18788 2479.551707 477104.1111
 14337.94316 2812.313429 477240.3855
 9087.251483 3013.573489 477368.0043
 3109.001347 3108.981658 477443.7555
 -3109.001834 3108.981634 477443.7555
 -9087.252072 3013.573674 477368.0043
 -14337.94362 2812.313448 477240.3855
 -18368.18843 2479.55198 477104.111
 -20766.04723 1977.298693 477008.1057
 20766.04638 -1977.3373 477008.1055
 18368.18785 -2479.59094 477104.1109
 14337.94304 -2812.353413 477240.3853
 9087.25133 -3013.612831 477368.0041
 3109.001321 -3109.021262 477443.7552
 -3109.001889 -3109.020924 477443.7552
 -9087.251878 -3013.613 477368.004
 -14337.94364 -2812.353093 477240.3853
 -18368.18836 -2479.590864 477104.1108
 -20766.04694 -1977.337071 477008.1055
 20607.96576 -5093.46184 476991.8654
 17767.19813 -7276.237257 477077.8284
 13897.68123 -8231.034758 477190.7122
 8809.252173 -8809.272617 477301.4405
 3013.593183 -9087.270997 477368.0038
 -3013.593802 -9087.271321 477368.0038
 -8809.252812 -8809.272263 477301.4405
 -13897.68177 -8231.034766 477190.7122
 -17767.19879 -7276.237028 477077.8284
 -20607.96632 -5093.461658 476991.8654
 0 0 0
 16008.94512 -12380.26494 477034.9191
 13029.7458 -13029.76657 477108.2919
 8231.01452 -13897.70151 477190.712
 2812.333165 -14337.96355 477240.3848
 -2812.333849 -14337.96339 477240.3848
 -8231.015089 -13897.70153 477190.712
 -13029.74656 -13029.76642 477108.2919
 -16008.94569 -12380.26478 477034.9191
 0 0 -0
 0 0 0
 15258.70637 -15258.7265 476976.1152
 12380.24445 -16008.96565 477034.9189
 7276.217127 -17767.21911 477077.8279
 2479.571201 -18368.20816 477104.1102
 -2479.57186 -18368.20805 477104.1102
 -7276.217891 -17767.21909 477077.8279
 -12380.24503 -16008.96551 477034.9189
 -15258.70706 -15258.72638 476976.1152
 0 0 -0
 0 0 0
 0 0 0
 0 0 0
 5093.441924 -20607.98663 476991.8647
 1977.317477 -20766.06685 477008.1047
 -1977.318192 -20766.06691 477008.1047
 -5093.442603 -20607.98655 476991.8647
 0 0 -0
 0 0 -0
 0 0 -0
 0 0 0
 0 0 0
 0 0 0
 3896.632086 15867.49527 477184.3566
 1512.978978 15985.30517 477193.9356
 -1512.979247 15985.30528 477193.9356
 -3896.632354 15867.49528 477184.3566
 0 0 -0
 0 0 -0
 0 0 -0
 0 0 0
 11750.57498 11750.55474 477174.7266
 9531.807036 12321.25919 477209.8098
 5593.698432 13682.22589 477235.1397
 1905.437566 14150.83652 477250.4525
 -1905.437852 14150.83636 477250.4525
 -5593.698753 13682.22609 477235.1397
 -9531.807336 12321.25925 477209.8097
 -11750.57532 11750.55491 477174.7266
 0 0 -0
 0 0 0
 12321.27947 9531.786972 477209.8096
 10036.88416 10036.86405 477252.9661
 6345.359152 10719.95481 477301.4669
 2169.318495 11070.4843 477330.7132
 -2169.318865 11070.48444 477330.7132
 -6345.359417 10719.95478 477301.4669
 -10036.88459 10036.86428 477252.966
 -12321.27978 9531.787068 477209.8096
 0 0 -0
 15867.51666 3896.613544 477184.356
 13682.2468 5593.679145 477235.1393
 10719.97494 6345.339808 477301.4667
 6807.838209 6807.818604 477366.922
 2331.686435 7033.01509 477406.5052
 -2331.686777 7033.015111 477406.5052
 -6807.838709 6807.818752 477366.922
 -10719.97521 6345.339846 477301.4667
 -13682.24731 5593.679409 477235.1393
 -15867.51706 3896.613728 477184.356
 15985.32588 1512.960713 477193.935
 14150.85733 1905.418614 477250.452
 11070.50435 2169.299495 477330.7128
 7033.03497 2331.667767 477406.505
 2409.677863 2409.659495 477451.8387
 -2409.67834 2409.659588 477451.8387
 -7033.035346 2331.667756 477406.505
 -11070.50488 2169.299771 477330.7128
 -14150.85772 1905.418684 477250.452
 -15985.32636 1512.960956 477193.935
 15985.32582 -1512.997759 477193.9349
 14150.85706 -1905.456704 477250.4518
 11070.50446 -2169.337654 477330.7126
 7033.035113 -2331.705038 477406.5048
 2409.677636 -2409.695871 477451.8385
 -2409.678152 -2409.696068 477451.8385
 -7033.035614 -2331.704736 477406.5048
 -11070.50499 -2169.337684 477330.7126
 -14150.85754 -1905.456397 477250.4518
 -15985.32632 -1512.997593 477193.9349
 15867.51635 -3896.650468 477184.3557
 13682.24663 -5593.717247 477235.1388
 10719.97477 -6345.37795 477301.4662
 6807.838247 -6807.856761 477366.9215
 2331.686444 -7033.053654 477406.5047
 -2331.686995 -7033.053381 477406.5047
 -6807.838866 -6807.856869 477366.9215
 -10719.97525 -6345.377671 477301.4662
 -13682.24723 -5593.717152 477235.1388
 -15867.51687 -3896.650244 477184.3557
 0 0 0
 12321.2792 -9531.825238 477209.8089
 10036.88423 -10036.90274 477252.9652
 6345.359135 -10719.99288 477301.466
 2169.318395 -11070.52208 477330.7123
 -2169.31902 -11070.5221 477330.7123
 -6345.359719 -10719.99275 477301.466
 -10036.88488 -10036.90265 477252.9652
 -12321.27976 -9531.82507 477209.8089
 0 0 -0
 0 0 0
 11750.5748 -11750.59286 477174.7257
 9531.806796 -12321.29706 477209.8088
 5593.698335 -13682.2644 477235.1386
 1905.437384 -14150.87463 477250.4514
 -1905.438045 -14150.87472 477250.4514
 -5593.698985 -13682.26427 477235.1386
 -9531.807425 -12321.29697 477209.8088
 -11750.57542 -11750.59272 477174.7257
 0 0 -0
 0 0 0
 0 0 0
 0 0 0
 3896.63178 -15867.53403 477184.3553
 1512.978823 -15985.34281 477193.9344
 -1512.979497 -15985.34271 477193.9344
 -3896.63245 -15867.53402 477184.3553
 0 0 -0
 0 0 -0
 0 0 -0
 0 0 0
 0 0 0
 0 0 0
 2918.666053 11936.27255 477305.8538
 1133.185018 12021.25072 477311.2996
 -1133.185178 12021.25066 477311.2996
 -2918.666242 11936.27265 477305.8538
 0 0 -0
 0 0 -0
 0 0 -0
 0 0 0
 8840.803794 8840.784391 477300.2745
 7166.553539 9262.079042 477320.3596
 4199.744807 10285.28242 477334.732
 1429.788079 10637.21519 477343.353
 -1429.788311 10637.2154 477343.353
 -4199.744935 10285.28238 477334.732
 -7166.55383 9262.079223 477320.3596
 -8840.804008 8840.784535 477300.2745
 0 0 -0
 0 0 0
 9262.098711 7166.534596 477320.3595
 7543.442531 7543.423127 477344.8068
 4768.017069 8058.614282 477372.1777
 1630.022789 8324.207283 477388.6487
 -1630.023001 8324.207124 477388.6487
 -4768.017401 8058.614512 477372.1777
 -7543.442679 7543.423174 477344.8068
 -9262.09904 7166.534807 477320.3595
 0 0 -0
 11936.29291 2918.64777 477305.8534
 10285.30276 4199.726253 477334.7318
 8058.633541 4767.998312 477372.1776
 5119.721792 5119.702754 477409.0996
 1754.099636 5291.950063 477431.4503
 -1754.099956 5291.950239 477431.4503
 -5119.722055 5119.70271 477409.0996
 -8058.633941 4767.998593 477372.1776
 -10285.303 4199.726348 477334.7318
 -11936.29329 2918.648021 477305.8534
 12021.27045 1133.16694 477311.2991
 10637.23521 1429.769948 477343.3526
 8324.226532 1630.004524 477388.6484
 5291.968764 1754.081382 477431.4501
 1814.080468 1814.062718 477457.1076
 -1814.080837 1814.062579 477457.1076
 -5291.969158 1754.08166 477431.4501
 -8324.226877 1630.004506 477388.6484
 -10637.23563 1429.77028 477343.3526
 -12021.27082 1133.167113 477311.2991
 12021.27033 -1133.202927 477311.2991
 10637.23524 -1429.806352 477343.3525
 8324.226642 -1630.040872 477388.6483
 5291.968942 -1754.117567 477431.45
 1814.080493 -1814.09769 477457.1075
 -1814.080949 -1814.097404 477457.1075
 -5291.969385 -1754.117717 477431.45
 -8324.227048 -1630.040485 477388.6483
 -10637.23571 -1429.806325 477343.3525
 -12021.27074 -1133.202643 477311.299
 11936.29284 -2918.683575 477305.8532
 10285.30261 -4199.762632 477334.7314
 8058.633747 -4768.034693 477372.1772
 5119.722041 -5119.73904 477409.0992
 1754.09966 -5291.98534 477431.4499
 -1754.10017 -5291.985535 477431.4499
 -5119.722519 -5119.738724 477409.0992
 -8058.634343 -4768.034747 477372.1772
 -10285.30301 -4199.762304 477334.7314
 -11936.29334 -2918.683396 477305.8532
 0 0 0
 9262.098861 -7166.570852 477320.359
 7543.442783 -7543.459438 477344.8062
 4768.017381 -8058.649562 477372.1771
 1630.02272 -8324.242222 477388.6481
 -1630.023284 -8324.242114 477388.6481
 -4768.018015 -8058.649582 477372.1771
 -7543.44322 -7543.459194 477344.8062
 -9262.09948 -7166.570746 477320.359
 0 0 -0
 0 0 0
 8840.804067 -8840.820366 477300.2738
 7166.553739 -9262.114517 477320.3589
 4199.744814 -10285.31779 477334.7313
 1429.788047 -10637.25002 477343.3522
 -1429.788685 -10637.24995 477343.3522
 -4199.745365 -10285.31771 477334.7313
 -7166.554386 -9262.114417 477320.3589
 -8840.804611 -8840.820202 477300.2738
 0 0 -0
 0 0 0
 0 0 0
 0 0 0
 2918.665896 -11936.30718 477305.8529
 1133.184846 -12021.28448 477311.2987
 -1133.185482 -12021.2845 477311.2987
 -2918.66655 -11936.30712 477305.8529
 0 0 -0
 0 0 -0
 0 0 -0
 0 0 0
 0 0 0
 0 0 0
 2133.865613 8752.558915 477379.001
 828.3776572 8812.246091 477381.9534
 -828.3777281 8812.246164 477381.9534
 -2133.865664 8752.558952 477379.001
 0 0 -0
 0 0 -0
 0 0 -0
 0 0 0
 6483.72322 6483.704706 477375.9464
 5251.702534 6786.472459 477386.8816
 3073.823911 7534.669271 477394.6498
 1045.869666 7790.858894 477399.2878
 -1045.869743 7790.858765 477399.2878
 -3073.824048 7534.669444 477394.6498
 -5251.702641 6786.47257 477386.8816
 -6483.723373 6483.704882 477375.9464
 0 0 -0
 0 0 0
 6786.491415 5251.684152 477386.8815
 5523.920009 5523.901509 477400.0881
 3489.344824 5899.396092 477414.8017
 1192.51714 6093.146611 477423.6303
 -1192.517264 6093.146849 477423.6303
 -3489.345022 5899.396047 477414.8017
 -5523.920139 5523.901737 477400.0881
 -6786.491596 5251.684299 477386.8815
 0 0 -0
 8752.578255 2133.847665 477379.0008
 7534.688584 3073.805834 477394.6496
 5899.414797 3489.326492 477414.8016
 3746.60389 3746.586062 477434.6001
 1283.49136 3872.770585 477446.5683
 -1283.491629 3872.770369 477446.5683
 -3746.60397 3746.586369 477434.6001
 -5899.415137 3489.326499 477414.8016
 -7534.68878 3073.80612 477394.6496
 -8752.578537 2133.847875 477379.0008
 8812.264991 828.3600585 477381.9531
 7790.87801 1045.852108 477399.2875
 6093.164936 1192.4993 477423.6301
 3872.788 1283.473682 477446.5682
 1327.553735 1327.536845 477460.3089
 -1327.553991 1327.537198 477460.3089
 -3872.788376 1283.473498 477446.5682
 -6093.165158 1192.499705 477423.6301
 -7790.878345 1045.852147 477399.2875
 -8812.265297 828.3603486 477381.953
 8812.265004 -828.395004 477381.953
 7790.877893 -1045.886819 477399.2874
 6093.165303 -1192.534751 477423.63
 3872.78815 -1283.508287 477446.5681
 1327.553655 -1327.569957 477460.3088
 -1327.55399 -1327.57031 477460.3088
 -3872.788588 -1283.507811 477446.5681
 -6093.165643 -1192.534919 477423.63
 -7790.878277 -1045.886383 477399.2874
 -8812.265358 -828.3948559 477381.953
 8752.578246 -2133.88267 477379.0006
 7534.68872 -3073.841239 477394.6494
 5899.414988 -3489.3617 477414.8014
 3746.604437 -3746.620122 477434.5998
 1283.491258 -3872.803478 477446.568
 -1283.491777 -3872.803096 477446.568
 -3746.60477 -3746.620377 477434.5998
 -5899.415495 -3489.361228 477414.8014
 -7534.689138 -3073.841259 477394.6494
 -8752.578653 -2133.882388 477379.0006
 0 0 0
 6786.491743 -5251.719612 477386.8811
 5523.920553 -5523.935913 477400.0877
 3489.345005 -5899.429999 477414.8013
 1192.51736 -6093.179406 477423.6299
 -1192.517857 -6093.179598 477423.6299
 -3489.345561 -5899.429668 477414.8013
 -5523.921065 -5523.935993 477400.0877
 -6786.492221 -5251.71933 477386.8811
 0 0 -0
 0 0 0
 6483.723818 -6483.739266 477375.9459
 5251.702928 -6786.506752 477386.8811
 3073.82419 -7534.702559 477394.6493
 1045.869445 -7790.891568 477399.2872
 -1045.870019 -7790.891454 477399.2872
 -3073.824796 -7534.702592 477394.6493
 -5251.703444 -6786.506537 477386.8811
 -6483.72437 -6483.739144 477375.9459
 0 0 -0
 0 0 0
 0 0 0
 0 0 0
 2133.865495 -8752.591138 477379.0004
 828.3775355 -8812.277874 477381.9528
 -828.3781514 -8812.277875 477381.9528
 -2133.866092 -8752.591059 477379.0004
 0 0 -0
 0 0 -0
 0 0 -0
 0 0 0
 0 0 0
 0 0 0
 1505.562068 6188.005301 477421.5257
 584.387654 6228.595092 477423.0141
 -584.3875946 6228.595098 477423.0141
 -1505.562039 6188.005359 477421.5257
 0 0 -0
 0 0 -0
 0 0 -0
 0 0 0
 4584.553044 4584.535743 477419.9778
 3710.698592 4794.699556 477425.505
 2169.69811 5321.922768 477429.4093
 737.8654749 5501.491488 477431.7338
 -737.8654762 5501.491575 477431.7338
 -2169.698079 5321.922832 477429.4093
 -3710.698617 4794.699706 477425.505
 -4584.553085 4584.535923 477419.9778
 0 0 -0
 0 0 0
 4794.716803 3710.681299 477425.505
 3900.052049 3900.034571 477432.1424
 2461.803119 4163.159015 477439.5029
 841.0130565 4298.818187 477443.9068
 -841.0131205 4298.81813 477443.9068
 -2461.803111 4163.159166 477439.5029
 -3900.05219 3900.034698 477432.1424
 -4794.716848 3710.681496 477425.505
 0 0 -0
 6188.023073 1505.545142 477421.5255
 5321.940698 2169.680702 477429.4092
 4163.17548 2461.786006 477439.5028
 2642.270041 2642.253744 477449.3776
 904.8919605 2730.715725 477455.3337
 -904.892026 2730.71594 477455.3337
 -2642.270314 2642.253706 477449.3776
 -4163.17546 2461.786276 477439.5028
 -5321.940946 2169.680852 477429.4092
 -6188.023243 1505.545403 477421.5255
 6228.612529 584.3708192 477423.0139
 5501.508566 737.8485034 477431.7336
 4298.834815 840.9960993 477443.9067
 2730.731909 904.8757213 477455.3336
 935.8183185 935.8030715 477462.1658
 -935.8185591 935.8028028 477462.1658
 -2730.732024 904.8761044 477455.3336
 -4298.835137 840.996048 477443.9067
 -5501.508737 737.8488755 477431.7336
 -6228.612778 584.3710142 477423.0139
 6228.61248 -584.4042414 477423.0139
 5501.508694 -737.8820689 477431.7336
 4298.834862 -841.0298044 477443.9066
 2730.732176 -904.9078211 477455.3336
 935.8182746 -935.8336517 477462.1658
 -935.8186072 -935.8331987 477462.1658
 -2730.732423 -904.9081075 477455.3336
 -4298.835205 -841.0292912 477443.9066
 -5501.508961 -737.8820741 477431.7336
 -6228.612787 -584.403915 477423.0138
 6188.023182 -1505.578561 477421.5254
 5321.940675 -2169.714758 477429.409
 4163.175986 -2461.819113 477439.5027
 2642.270223 -2642.285594 477449.3775
 904.8920347 -2730.746387 477455.3335
 -904.8923786 -2730.746765 477455.3335
 -2642.270728 -2642.285081 477449.3775
 -4163.176274 -2461.819295 477439.5027
 -5321.9411 -2169.714325 477429.409
 -6188.023499 -1505.578374 477421.5254
 0 0 0
 4794.717236 -3710.7146 477425.5047
 3900.052361 -3900.067982 477432.1421
 2461.803607 -4163.189684 477439.5026
 841.0128376 -4298.848403 477443.9065
 -841.0133374 -4298.848058 477443.9065
 -2461.804047 -4163.189903 477439.5026
 -3900.052839 -3900.067575 477432.1421
 -4794.717668 -3710.714533 477425.5047
 0 0 -0
 0 0 0
 4584.553703 -4584.568612 477419.9775
 3710.699144 -4794.731438 477425.5047
 2169.698172 -5321.95448 477429.4089
 737.8655102 -5501.521195 477431.7335
 -737.8660637 -5501.521335 477431.7335
 -2169.698661 -5321.954227 477429.4089
 -3710.699667 -4794.731398 477425.5047
 -4584.554178 -4584.5684 477419.9775
 0 0 -0
 0 0 0
 0 0 0
 0 0 0
 1505.562023 -6188.035152 477421.5253
 584.3874434 -6228.624449 477423.0137
 -584.388008 -6228.624374 477423.0137
 -1505.562607 -6188.035134 477421.5253
 0 0 -0
 0 0 -0
 0 0 -0
 0 0 0
 0 0 0
 0 0 0
 995.0878317 4095.456444 477445.3983
 386.1995278 4121.488419 477446.055
 -386.1993901 4121.488418 477446.055
 -995.0876688 4095.456524 477445.3983
 0 0 -0
 0 0 -0
 0 0 -0
 0 0 0
 3034.549186 3034.53223 477444.7135
 2454.687831 3171.578343 477447.1561
 1434.207738 3519.48155 477448.8743
 487.5464694 3637.410743 477449.8956
 -487.546312 3637.410853 477449.8956
 -1434.20771 3519.481565 477448.8743
 -2454.687719 3171.578531 477447.1561
 -3034.549141 3034.53241 477444.7135
 0 0 -0
 0 0 0
 3171.59504 2454.671249 477447.1561
 2578.249243 2578.232798 477450.0776
 1626.407611 2750.899686 477453.3052
 555.4194286 2839.802751 477455.2318
 -555.4194223 2839.802693 477455.2318
 -1626.407484 2750.899874 477453.3052
 -2578.249259 2578.232911 477450.0776
 -3171.595013 2454.671463 477447.1561
 0 0 -0
 4095.47363 995.0716747 477445.3982
 3519.498161 1434.19091 477448.8743
 2750.915594 1626.391469 477453.3052
 1744.825682 1744.81037 477457.6238
 597.3461206 1802.776634 477460.2229
 -597.3461248 1802.776689 477460.2229
 -1744.825769 1744.810473 477457.6238
 -2750.91562 1626.391644 477453.3052
 -3519.498237 1434.191159 477448.8743
 -4095.473737 995.0719306 477445.3982
 4121.50535 386.1833252 477446.0549
 3637.426849 487.5301578 477449.8955
 2839.817808 555.4031684 477455.2317
 1802.791755 597.3304306 477460.2229
 617.6172748 617.6020989 477463.2011
 -617.6174115 617.6022858 477463.2011
 -1802.791886 597.3304074 477460.2229
 -2839.817939 555.4034831 477455.2317
 -3637.427001 487.5302984 477449.8955
 -4121.505503 386.1836261 477446.0549
 4121.505389 -386.215767 477446.0549
 3637.426789 -487.5625057 477449.8955
 2839.818201 -555.4352654 477455.2316
 1802.791755 -597.3615305 477460.2228
 617.617054 -617.6317331 477463.2011
 -617.6172991 -617.6319923 477463.2011
 -1802.791954 -597.3611195 477460.2228
 -2839.818469 -555.4353315 477455.2316
 -3637.427003 -487.562108 477449.8955
 -4121.505601 -386.2155526 477446.0549
 4095.473766 -995.1040324 477445.3981
 3519.498344 -1434.223904 477448.8742
 2750.915756 -1626.423285 477453.3051
 1744.826104 -1744.840549 477457.6237
 597.3459949 -1802.806038 477460.2228
 -597.3462982 -1802.805643 477460.2228
 -1744.826507 -1744.840783 477457.6237
 -2750.916012 -1626.422825 477453.3051
 -3519.498672 -1434.223844 477448.8741
 -4095.474027 -995.1037333 477445.3981
 0 0 0
 3171.595527 -2454.703313 477447.1559
 2578.249784 -2578.264438 477450.0775
 1626.407771 -2750.929395 477453.305
 555.4194789 -2839.830656 477455.2316
 -555.419954 -2839.830926 477455.2316
 -1626.408077 -2750.929008 477453.305
 -2578.250257 -2578.264488 477450.0775
 -3171.595888 -2454.703023 477447.1559
 0 0 -0
 0 0 0
 3034.54991 -3034.563788 477444.7133
 2454.688392 -3171.609399 477447.1559
 1434.207939 -3519.51118 477448.8741
 487.5463416 -3637.439166 477449.8954
 -487.5467827 -3637.438954 477449.8954
 -1434.208508 -3519.511256 477448.8741
 -2454.688784 -3171.60916 477447.1559
 -3034.550358 -3034.563638 477444.7133
 0 0 -0
 0 0 0
 0 0 0
 0 0 0
 995.0878446 -4095.485436 477445.398
 386.199341 -4121.517124 477446.0548
 -386.1998772 -4121.517155 477446.0548
 -995.0883433 -4095.485339 477445.398
 0 0 -0
 0 0 -0
 0 0 -0
 0 0 0
 0 0 0
 0 0 0
 565.6751491 2330.056198 477457.9795
 219.5225891 2344.544976 477458.1932
 -219.5223348 2344.545031 477458.1932
 -565.6749035 2330.056246 477457.9795
 0 0 -0
 0 0 -0
 0 0 -0
 0 0 0
 1726.596867 1726.580152 477457.7563
 1396.093742 1803.749315 477458.5518
 815.290085 2001.254828 477459.1098
 277.075072 2067.970419 477459.4412
 -277.0748622 2067.970356 477459.4412
 -815.2898765 2001.255014 477459.1098
 -1396.093564 1803.749443 477458.5518
 -1726.596722 1726.580368 477457.7563
 0 0 -0
 0 0 0
 1803.765326 1396.076926 477458.5518
 1465.677304 1465.660828 477459.5008
 924.1456473 1563.268229 477460.5465