# OOMMF OVF 2.0
#
# Segment count: 1
#
# Begin: Segment
# Begin: Header
#
# Title: Oxs_MinDriver::Magnetization
# Desc: Oxs vector field output
# Desc:  MIF source file: F:/Bogdan/UNIC/2022/Master_degree/Samples/Cylinder0_5000 1.mif
# Desc:  Iteration: 529, State id: 3405
# Desc:  Stage: 0, Stage iteration: 529
# Desc:  Stage simulation time: -1 s
# Desc:  Total simulation time: -2 s
# meshunit: m
# meshtype: rectangular
# xbase: -8.9999999999999995e-09
# ybase: -8.9999999999999995e-09
# zbase: -2.0999999999999999e-08
# xnodes: 10
# ynodes: 10
# znodes: 22
# xstepsize: 2.0000000000000001e-09
# ystepsize: 2.0000000000000001e-09
# zstepsize: 2.0000000000000001e-09
# xmin: -1e-08
# ymin: -1e-08
# zmin: -2.1999999999999998e-08
# xmax: 1e-08
# ymax: 1e-08
# zmax: 2.2000000000000005e-08
# valuedim: 3
# valuelabels: Magnetization_x Magnetization_y Magnetization_z
# valueunits: A/m A/m A/m
#
# End: Header
#
# Begin: Data Text
 0 0 0
 0 0 0
 0 0 0
 -2405.166465 -475274.3954 -45610.69528
 -917.8285194 -475235.3531 -46069.38301
 917.8074409 -475235.3531 -46069.38338
 2405.144727 -475274.3955 -45610.69521
 0 0 -0
 0 0 -0
 0 0 -0
 0 0 0
 -7118.932377 -476209.7296 -33845.02201
 -4022.521799 -476131.9521 -35412.63595
 -1784.297988 -475907.6619 -38478.36943
 -616.7017906 -475836.4935 -39384.2918
 616.6781091 -475836.4935 -39384.29145
 1784.273571 -475907.662 -38478.36911
 4022.495176 -476131.9522 -35412.63793
 7118.90461 -476209.7299 -33845.02438
 0 0 -0
 0 0 0
 -3977.243553 -476688.945 -26901.72085
 -2767.509907 -476639.9 -27903.7254
 -1403.062217 -476568.4666 -29195.87834
 -440.0146539 -476533.5289 -29790.49427
 439.9887834 -476533.529 -29790.49288
 1403.035988 -476568.4667 -29195.87919
 2767.482379 -476639.9001 -27903.72632
 3977.21507 -476688.9452 -26901.72162
 0 0 -0
 -2410.986581 -477313.1289 -11757.3576
 -1761.741226 -477197.3797 -15856.49429
 -1390.47395 -477148.1077 -17309.56901
 -808.346212 -477119.5931 -18113.85463
 -260.3267611 -477106.2665 -18477.39077
 260.2988557 -477106.2666 -18477.39003
 808.3182889 -477119.5932 -18113.85415
 1390.445344 -477148.1078 -17309.56832
 1761.711198 -477197.3798 -15856.49336
 2410.956773 -477313.129 -11757.3569
 -920.3876846 -477442.4045 -4446.859941
 -612.1533394 -477433.5942 -5353.47183
 -435.1765577 -477427.8879 -5856.08548
 -258.9818147 -477424.5671 -6130.819518
 -84.92033004 -477423.0285 -6254.276323
 84.89110645 -477423.0285 -6254.275621
 258.9530422 -477424.5672 -6130.816673
 435.1469352 -477427.888 -5856.081456
 612.1225822 -477433.5943 -5353.468626
 920.3571419 -477442.4046 -4446.856915
 920.3491508 -477442.4054 4446.769977
 612.1161215 -477433.5953 5353.382614
 435.1422935 -477427.8891 5855.995882
 258.9498402 -477424.5682 6130.731963
 84.88967202 -477423.0296 6254.190851
 -84.92000122 -477423.0296 6254.19282
 -258.9794526 -477424.5682 6130.735286
 -435.1719105 -477427.889 5856.001094
 -612.146863 -477433.5952 5353.386773
 -920.3801695 -477442.4053 4446.774985
 2410.948245 -477313.1313 11757.26781
 1761.704875 -477197.3827 15856.4053
 1390.44021 -477148.111 17309.48126
 808.3147874 -477119.5964 18113.76891
 260.2964986 -477106.2698 18477.30545
 -260.3274203 -477106.2698 18477.30615
 -808.3444576 -477119.5963 18113.76995
 -1390.470133 -477148.1108 17309.48513
 -1761.735131 -477197.3825 15856.41033
 -2410.979621 -477313.131 11757.2738
 0 0 0
 3977.209106 -476688.9503 26901.63207
 2767.477233 -476639.9053 27903.63792
 1403.031577 -476568.472 29195.79309
 439.985566 -476533.5343 29790.40782
 -440.0163235 -476533.5342 29790.40843
 -1403.061994 -476568.4719 29195.79277
 -2767.507178 -476639.905 27903.64103
 -3977.239325 -476688.9497 26901.63713
 0 0 -0
 0 0 0
 7118.899002 -476209.7364 33844.93346
 4022.490055 -476131.9588 35412.54916
 1784.268766 -475907.669 38478.28271
 616.6744464 -475836.5007 39384.20565
 -616.7043317 -475836.5007 39384.20446
 -1784.298867 -475907.669 38478.28219
 -4022.519769 -476131.9585 35412.55004
 -7118.928821 -476209.7357 33844.93767
 0 0 -0
 0 0 0
 0 0 0
 0 0 0
 2405.139736 -475274.4038 45610.60938
 917.802689 -475235.3615 46069.29646
 -917.8324249 -475235.3616 46069.29501
 -2405.169165 -475274.404 45610.60622
 0 0 -0
 0 0 -0
 0 0 -0
 0 0 0
 0 0 0
 0 0 0
 -2465.342922 -475632.7585 -41704.58496
 -944.8066307 -475594.7049 -42197.81158
 944.7849165 -475594.7049 -42197.81175
 2465.320605 -475632.7586 -41704.58493
 0 0 -0
 0 0 -0
 0 0 -0
 0 0 0
 -7503.83927 -476405.9003 -30870.40347
 -4071.216026 -476341.3316 -32468.94363
 -1700.626657 -476129.9971 -35625.90418
 -590.113809 -476055.1355 -36647.38831
 590.0906602 -476055.1355 -36647.38859
 1700.602776 -476129.9972 -35625.90411
 4071.190291 -476341.3317 -32468.94525
 7503.81266 -476405.9006 -30870.40604
 0 0 -0
 0 0 0
 -4004.806268 -476803.0733 -24792.37936
 -2728.202376 -476750.8374 -25943.53967
 -1328.735348 -476678.1461 -27350.51788
 -409.9537111 -476641.0315 -28018.39244
 409.9285304 -476641.0315 -28018.39281
 1328.710269 -476678.1462 -27350.51732
 2728.176149 -476750.8375 -25943.53991
 4004.779615 -476803.0735 -24792.38071
 0 0 -0
 -2497.905834 -477342.6147 -10471.86396
 -1679.22428 -477237.9117 -14595.4477
 -1314.808641 -477187.5513 -16192.07957
 -753.3243648 -477157.8533 -17078.84116
 -240.1079084 -477143.7741 -17482.34669
 240.0813798 -477143.7742 -17482.34588
 753.2980923 -477157.8534 -17078.84056
 1314.781038 -477187.5514 -16192.07852
 1679.196063 -477237.9119 -14595.44655
 2497.876154 -477342.6149 -10471.86271
 -949.9527985 -477446.0785 -4026.295484
 -585.8174208 -477437.9839 -4949.716151
 -404.4952277 -477432.2107 -5494.714082
 -238.5287887 -477428.7494 -5796.862574
 -77.77648648 -477427.129 -5933.101845
 77.74747093 -477427.1291 -5933.100939
 238.5002942 -477428.7495 -5796.861064
 404.4665339 -477432.2107 -5494.711667
 585.7881363 -477437.9839 -4949.712847
 949.9232284 -477446.0785 -4026.292255
 949.917064 -477446.0793 4026.205901
 585.7824974 -477437.9848 4949.627266
 404.4621309 -477432.2117 5494.626401
 238.4975583 -477428.7505 5796.776486
 77.74648267 -477427.1301 5933.01695
 -77.77613253 -477427.1301 5933.017701
 -238.5269532 -477428.7505 5796.778562
 -404.4920112 -477432.2117 5494.630098
 -585.8126588 -477437.9847 4949.631719
 -949.9466002 -477446.0792 4026.211099
 2497.869556 -477342.6169 10471.77432
 1679.189832 -477237.9146 14595.35893
 1314.776139 -477187.5544 16191.99193
 753.2938607 -477157.8564 17078.7551
 240.0784695 -477143.7773 17482.2614
 -240.1093088 -477143.7772 17482.26222
 -753.3242977 -477157.8563 17078.75716
 -1314.806548 -477187.5542 16191.99575
 -1679.220642 -477237.9143 14595.3643
 -2497.900127 -477342.6166 10471.78057
 0 0 0
 4004.773238 -476803.0782 24792.29137
 2728.170372 -476750.8423 25943.45221
 1328.70548 -476678.1511 27350.43152
 409.9251087 -476641.0365 28018.30782
 -409.956021 -476641.0365 28018.30688
 -1328.736424 -476678.151 27350.43248
 -2728.201931 -476750.842 25943.45543
 -4004.804732 -476803.0777 24792.29626
 0 0 -0
 0 0 0
 7503.806668 -476405.9065 30870.31564
 4071.184678 -476341.3378 32468.85671
 1700.597884 -476130.0036 35625.81815
 590.086481 -476055.1421 36647.30271
 -590.1169602 -476055.1421 36647.30161
 -1700.628698 -476130.0036 35625.81704
 -4071.216083 -476341.3374 32468.858
 -7503.838254 -476405.9058 30870.31946
 0 0 -0
 0 0 0
 0 0 0
 0 0 0
 2465.315847 -475632.7662 41704.4989
 944.7808401 -475594.7126 42197.72541
 -944.8102986 -475594.7127 42197.72361
 -2465.346217 -475632.7662 41704.49695
 0 0 -0
 0 0 -0
 0 0 -0
 0 0 0
 0 0 0
 0 0 0
 -2608.504174 -476062.8262 -36458.916
 -998.336489 -476031.9542 -36938.50575
 998.3156955 -476031.9542 -36938.50606
 2608.484276 -476062.8262 -36458.91723
 0 0 -0
 0 0 -0
 0 0 -0
 0 0 0
 -7951.378107 -476636.744 -26945.52187
 -4305.174346 -476595.6876 -28458.51914
 -1782.672696 -476427.7273 -31389.71253
 -611.6655443 -476362.7475 -32404.16574
 611.6428865 -476362.7475 -32404.16609
 1782.650029 -476427.7273 -31389.7135
 4305.150275 -476595.6878 -28458.52052
 7951.353453 -476636.7443 -26945.52438
 0 0 -0
 0 0 0
 -4230.107103 -476949.2428 -21757.69462
 -2841.783297 -476904.77 -22926.75028
 -1357.330644 -476841.4657 -24336.09446
 -412.9670008 -476807.3333 -25029.33701
 412.9439814 -476807.3333 -25029.33732
 1357.306993 -476841.4658 -24336.09465
 2841.759039 -476904.7701 -22926.75201
 4230.082305 -476949.243 -21757.69614
 0 0 -0
 -2655.807054 -477371.5573 -9011.896067
 -1762.750721 -477288.9688 -12806.41588
 -1342.92882 -477245.2649 -14388.36284
 -753.0682007 -477218.1501 -15301.68008
 -236.830249 -477204.8426 -15727.47371
 236.8064549 -477204.8426 -15727.47274
 753.0437649 -477218.1502 -15301.67885
 1342.90366 -477245.265 -14388.36226
 1762.725464 -477288.9689 -12806.4149
 2655.781346 -477371.5575 -9011.893965
 -1007.083785 -477450.2446 -3481.517346
 -608.2134778 -477443.784 -4351.381221
 -407.3165541 -477438.7119 -4897.114515
 -235.133462 -477435.5016 -5211.319571
 -75.76501406 -477433.9535 -5355.898334
 75.73930285 -477433.9535 -5355.896957
 235.1066697 -477435.5016 -5211.317473
 407.2899561 -477438.712 -4897.112186
 608.1869332 -477443.784 -4351.377138
 1007.058325 -477450.2447 -3481.514415
 1007.054113 -477450.2453 3481.429912
 608.1835462 -477443.7848 4351.293252
 407.2869306 -477438.7128 4897.028263
 235.1042804 -477435.5025 5211.234945
 75.73736895 -477433.9544 5355.814379
 -75.76601408 -477433.9544 5355.816211
 -235.1330728 -477435.5025 5211.236907
 -407.3149059 -477438.7128 4897.032613
 -608.210426 -477443.7847 4351.298458
 -1007.080259 -477450.2453 3481.43463
 2655.777091 -477371.5591 9011.80807
 1762.720555 -477288.9712 12806.32887
 1342.899243 -477245.2675 14388.27746
 753.0395085 -477218.1529 15301.59495
 236.8028204 -477204.8453 15727.39001
 -236.8331918 -477204.8453 15727.39069
 -753.0700476 -477218.1527 15301.59763
 -1342.92894 -477245.2674 14388.28079
 -1762.74969 -477288.971 12806.33435
 -2655.803761 -477371.5589 9011.813744
 0 0 0
 4230.077091 -476949.247 21757.60858
 2841.754029 -476904.7743 22926.66537
 1357.301959 -476841.4701 24336.01052
 412.9393888 -476807.3377 25029.25336
 -412.9708591 -476807.3376 25029.25333
 -1357.33362 -476841.47 24336.01068
 -2841.784721 -476904.774 22926.66817
 -4230.107863 -476949.2465 21757.61333
 0 0 -0
 0 0 0
 7951.347929 -476636.7494 26945.43569
 4305.144928 -476595.693 28458.43365
 1782.645199 -476427.7329 31389.62853
 611.6380304 -476362.7532 32404.08184
 -611.6700741 -476362.7533 32404.08066
 -1782.676024 -476427.7329 31389.62764
 -4305.176714 -476595.6926 28458.43548
 -7951.379797 -476636.7486 26945.43992
 0 0 -0
 0 0 0
 0 0 0
 0 0 0
 2608.478992 -476062.8327 36458.8324
 998.310333 -476031.9608 36938.42109
 -998.3416761 -476031.9608 36938.41999
 -2608.509057 -476062.8327 36458.83045
 0 0 -0
 0 0 -0
 0 0 -0
 0 0 0
 0 0 0
 0 0 0
 -2785.125 -476452.3899 -30939.20716
 -1065.108801 -476431.2361 -31368.99936
 1065.090349 -476431.236 -31369.0008
 2785.107282 -476452.3898 -30939.2103
 0 0 -0
 0 0 -0
 0 0 -0
 0 0 0
 -8400.534351 -476843.1519 -22845.36688
 -4618.378995 -476828.6227 -24186.90666
 -1949.149244 -476710.2141 -26747.78204
 -664.7104915 -476661.3076 -27666.35669
 664.6914857 -476661.3076 -27666.35721
 1949.130471 -476710.2141 -26747.78332
 4618.359508 -476828.6228 -24186.90847
 8400.51485 -476843.1521 -22845.36937
 0 0 -0
 0 0 0
 -4538.85806 -477084.0965 -18494.18518
 -3055.274116 -477053.0421 -19568.63903
 -1468.313502 -477005.7059 -20863.16968
 -446.423394 -476978.7814 -21515.43755
 446.4036491 -476978.7814 -21515.43841
 1468.293549 -477005.706 -20863.17028
 3055.254317 -477053.0421 -19568.64105
 4538.8385 -477084.0967 -18494.18587
 0 0 -0
 -2840.629564 -477395.3641 -7580.797709
 -1930.192138 -477336.0005 -10885.23111
 -1453.75136 -477302.7062 -12324.14345
 -809.8180114 -477281.2846 -13182.97471
 -253.6106061 -477270.4171 -13592.49701
 253.5886734 -477270.4171 -13592.49587
 809.7960542 -477281.2847 -13182.97492
 1453.730322 -477302.7063 -12324.14377
 1930.170504 -477336.0006 -10885.23021
 2840.60696 -477395.3642 -7580.795153
 -1076.337823 -477453.782 -2932.377054
 -661.9082491 -477449.1941 -3701.38473
 -440.7340621 -477445.2968 -4203.044646
 -251.8620943 -477442.7116 -4501.667087
 -80.65767282 -477441.4268 -4642.06496
 80.63440461 -477441.4268 -4642.064323
 251.8384399 -477442.7116 -4501.665991
 440.7109934 -477445.2969 -4203.043241
 661.885642 -477449.1941 -3701.381285
 1076.315525 -477453.7821 -2932.373258
 1076.314081 -477453.7826 2932.292418
 661.8841004 -477449.1948 3701.301001
 440.7093294 -477445.2976 4202.962629
 251.8368758 -477442.7124 4501.586997
 80.63323507 -477441.4276 4641.985885
 -80.6585908 -477441.4276 4641.986425
 -251.8628204 -477442.7123 4501.5883
 -440.7343596 -477445.2975 4202.96625
 -661.9077392 -477449.1947 3701.304804
 -1076.336424 -477453.7825 2932.296696
 2840.605463 -477395.3655 7580.712895
 1930.167357 -477336.0025 10885.14807
 1453.726368 -477302.7084 12324.06222
 809.7925327 -477281.2869 13182.89491
 253.5857554 -477270.4194 13592.41661
 -253.6134746 -477270.4193 13592.41778
 -809.8210756 -477281.2868 13182.89572
 -1453.754178 -477302.7083 12324.06486
 -1930.193525 -477336.0023 10885.15198
 -2840.628506 -477395.3653 7580.717757
 0 0 0
 4538.833349 -477084.1 18494.10196
 3055.248619 -477053.0456 19568.55799
 1468.28781 -477005.7095 20863.08942
 446.3979243 -476978.7851 21515.35795
 -446.4289375 -476978.7851 21515.35744
 -1468.319031 -477005.7094 20863.08933
 -3055.279347 -477053.0453 19568.56032
 -4538.862584 -477084.0995 18494.107
 0 0 -0
 0 0 0
 8400.508938 -476843.1563 22845.28467
 4618.353078 -476828.6271 24186.82499
 1949.123538 -476710.2187 26747.70207
 664.6847705 -476661.3123 27666.27641
 -664.7172676 -476661.3123 27666.2749
 -1949.156322 -476710.2187 26747.70073
 -4618.385273 -476828.6267 24186.82654
 -8400.540078 -476843.1556 22845.28787
 0 0 -0
 0 0 0
 0 0 0
 0 0 0
 2785.099961 -476452.3951 30939.12885
 1065.083296 -476431.2414 31368.91902
 -1065.116177 -476431.2415 31368.9176
 -2785.132837 -476452.3951 30939.12554
 0 0 -0
 0 0 -0
 0 0 -0
 0 0 0
 0 0 0
 0 0 0
 -2958.604378 -476767.2027 -25615.47129
 -1131.664075 -476755.2726 -25980.77466
 1131.651891 -476755.2726 -25980.77592
 2958.592483 -476767.2026 -25615.47453
 0 0 -0
 0 0 -0
 0 0 -0
 0 0 0
 -8812.023229 -477008.2093 -18904.70284
 -4934.750336 -477017.7066 -20040.63643
 -2134.209048 -476943.2196 -22191.92876
 -726.7822085 -476910.2334 -22977.64992
 726.7691791 -476910.2333 -22977.6509
 2134.196492 -476943.2196 -22191.93075
 4934.738476 -477017.7066 -20040.63967
 8812.010406 -477008.2095 -18904.70536
 0 0 -0
 0 0 0
 -4852.133478 -477193.3958 -15322.89516
 -3295.53818 -477176.0249 -16249.67712
 -1610.23467 -477145.2796 -17368.37919
 -492.8784558 -477126.5912 -17940.02137
 492.8630442 -477126.5912 -17940.02171
 1610.219823 -477145.2796 -17368.38077
 3295.523548 -477176.0249 -16249.67971
 4852.118106 -477193.3959 -15322.89653
 0 0 -0
 -3019.338641 -477413.6135 -6244.7229
 -2115.800314 -477374.1439 -9017.837424
 -1595.569015 -477351.207 -10254.29927
 -893.6799924 -477336.2515 -11007.98008
 -280.9230926 -477328.4512 -11372.86685
 280.9058105 -477328.4511 -11372.86824
 893.6630592 -477336.2515 -11007.98142
 1595.551755 -477351.207 -10254.30063
 2115.782934 -477374.144 -9017.837826
 3019.320787 -477413.6136 -6244.722662
 -1144.540274 -477456.5125 -2416.608264
 -724.4093766 -477453.5976 -3067.348825
 -487.1760301 -477450.9131 -3501.362412
 -279.1472029 -477449.0704 -3765.44384
 -89.52228903 -477448.1324 -3891.544928
 89.50214256 -477448.1324 -3891.545064
 279.127624 -477449.0704 -3765.444129
 487.1563896 -477450.9131 -3501.361074
 724.390798 -477453.5977 -3067.347253
 1144.521117 -477456.5126 -2416.606486
 1144.521308 -477456.5129 2416.530414
 724.3902683 -477453.5982 3067.271924
 487.1556151 -477450.9137 3501.286246
 279.1262293 -477449.071 3765.369979
 89.50084508 -477448.133 3891.471711
 -89.52400252 -477448.133 3891.471795
 -279.1496931 -477449.071 3765.37078
 -487.1782765 -477450.9136 3501.288512
 -724.411715 -477453.5981 3067.273514
 -1144.541818 -477456.5129 2416.532325
 3019.319335 -477413.6146 6244.64553
 2115.780632 -477374.1455 9017.760778
 1595.548242 -477351.2087 10254.22415
 893.6587043 -477336.2533 11007.90614
 280.9012403 -477328.4529 11372.79414
 -280.9279208 -477328.4529 11372.79307
 -893.6855552 -477336.2532 11007.90685
 -1595.57441 -477351.2085 10254.2259
 -2115.80469 -477374.1453 9017.763109
 -3019.342014 -477413.6144 6244.647138
 0 0 0
 4852.112835 -477193.3985 15322.81843
 3295.516968 -477176.0276 16249.60191
 1610.213187 -477145.2824 17368.30516
 492.8561279 -477126.594 17939.9465
 -492.8859403 -477126.594 17939.94664
 -1610.242821 -477145.2823 17368.3045
 -3295.546899 -477176.0273 16249.60365
 -4852.14139 -477193.3981 15322.82143
 0 0 -0
 0 0 0
 8812.002635 -477008.2127 18904.62633
 4934.729564 -477017.71 20040.56155
 2134.186977 -476943.2232 22191.85504
 726.7595405 -476910.237 22977.5753
 -726.7924359 -476910.237 22977.57404
 -2134.219987 -476943.2231 22191.85258
 -4934.761724 -477017.7096 20040.56174
 -8812.034052 -477008.2121 18904.62869
 0 0 -0
 0 0 0
 0 0 0
 0 0 0
 2958.58168 -476767.2067 25615.39888
 1131.640172 -476755.2768 25980.69992
 -1131.676377 -476755.2768 25980.69813
 -2958.616591 -476767.2067 25615.395
 0 0 -0
 0 0 -0
 0 0 -0
 0 0 0
 0 0 0
 0 0 0
 -3110.66661 -477005.6523 -20683.3915
 -1190.491026 -477001.2686 -20981.98624
 1190.482034 -477001.2686 -20981.98716
 3110.656684 -477005.6523 -20683.39479
 0 0 -0
 0 0 -0
 0 0 -0
 0 0 0
 -9163.824371 -477132.0688 -15260.55638
 -5216.130544 -477160.9913 -16188.00828
 -2304.603463 -477121.3514 -17938.11901
 -785.1314157 -477101.5849 -18583.12645
 785.122707 -477101.5848 -18583.12762
 2304.594648 -477121.3513 -17938.12221
 5216.121818 -477160.9913 -16188.01193
 9163.816483 -477132.0688 -15260.55911
 0 0 -0
 0 0 0
 -5131.136829 -477275.9784 -12376.72034
 -3519.217031 -477270.1594 -13140.82786
 -1748.944984 -477253.5935 -14064.8476
 -539.6575935 -477242.2326 -14540.68494
 539.6470984 -477242.2326 -14540.68523
 1748.933875 -477253.5935 -14064.85003
 3519.206132 -477270.1594 -13140.83112
 5131.126224 -477275.9784 -12376.7233
 0 0 -0
 -3175.123359 -477426.9778 -5027.006879
 -2286.536771 -477402.9774 -7282.869538
 -1734.19644 -477388.6798 -8301.342182
 -980.3521925 -477379.4846 -8929.609674
 -310.1162627 -477374.5506 -9236.536
 310.1030987 -477374.5505 -9236.537376
 980.338634 -477379.4845 -8929.61283
 1734.18341 -477388.6798 -8301.345407
 2286.52452 -477402.9774 -7282.872462
 3175.109974 -477426.9778 -5027.009961
 -1204.554297 -477458.5158 -1945.773137
 -783.0695119 -477456.9301 -2477.503579
 -533.9508172 -477455.2763 -2836.420052
 -308.3240273 -477454.11 -3057.622861
 -99.33970693 -477453.5044 -3164.263473
 99.32331135 -477453.5044 -3164.265029
 308.307676 -477454.11 -3057.624039
 533.9352243 -477455.2764 -2836.42145
 783.0540884 -477456.9301 -2477.504963
 1204.538122 -477458.5158 -1945.774296
 1204.539066 -477458.5161 1945.70526
 783.0548455 -477456.9304 2477.436436
 533.9350044 -477455.2768 2836.353728
 308.3069738 -477454.1105 3057.556605
 99.32156542 -477453.5048 3164.197975
 -99.3423314 -477453.5048 3164.197343
 -308.3272475 -477454.1104 3057.556658
 -533.9549176 -477455.2767 2836.352828
 -783.0734783 -477456.9304 2477.435491
 -1204.558666 -477458.5161 1945.704056
 3175.109055 -477426.9786 5026.939704
 2286.522035 -477402.9785 7282.802467
 1734.179487 -477388.681 8301.276025
 980.334203 -477379.4858 8929.544365
 310.0972635 -477374.5518 9236.470422
 -310.122855 -477374.5519 9236.469019
 -980.3593315 -477379.4858 8929.543523
 -1734.204258 -477388.6809 8301.27611
 -2286.544349 -477402.9784 7282.802391
 -3175.12965 -477426.9784 5026.938412
 0 0 0
 5131.12027 -477275.9803 12376.65285
 3519.199387 -477270.1614 13140.76093
 1748.925862 -477253.5956 14064.78139
 539.6387135 -477242.2347 14540.61728
 -539.6669768 -477242.2346 14540.61773
 -1748.955667 -477253.5955 14064.78064
 -3519.228112 -477270.1611 13140.76147
 -5131.147899 -477275.98 12376.65355
 0 0 -0
 0 0 0
 9163.807448 -477132.0713 15260.48799
 5216.112078 -477160.9938 16187.94152
 2304.583968 -477121.354 17938.05393
 785.1114343 -477101.5875 18583.05891
 -785.1437344 -477101.5875 18583.05866
 -2304.616795 -477121.3539 17938.05074
 -5216.14467 -477160.9935 16187.94096
 -9163.838879 -477132.0706 15260.48931
 0 0 -0
 0 0 0
 0 0 0
 0 0 0
 3110.644359 -477005.6553 20683.32692
 1190.469455 -477001.2716 20981.91907
 -1190.504427 -477001.2716 20981.91729
 -3110.681098 -477005.6552 20683.32261
 0 0 -0
 0 0 -0
 0 0 -0
 0 0 0
 0 0 0
 0 0 0
 -3234.768561 -477178.3071 -16194.7772
 -1238.704209 -477179.6273 -16429.85783
 1238.695389 -477179.6273 -16429.85892
 3234.760139 -477178.307 -16194.7809
 0 0 -0
 0 0 -0
 0 0 -0
 0 0 0
 -9448.426114 -477220.9809 -11947.1316
 -5447.840909 -477264.5819 -12677.19086
 -2446.989745 -477250.8777 -14052.87353
 -834.3434961 -477241.1526 -14562.19046
 834.3359576 -477241.1526 -14562.19246
 2446.982051 -477250.8777 -14052.87664
 5447.83319 -477264.5819 -12677.19441
 9448.418127 -477220.9809 -11947.13492
 0 0 -0
 0 0 0
 -5361.040775 -477335.5079 -9692.440312
 -3707.40658 -477338.5554 -10297.08338
 -1868.265774 -477332.941 -11029.24932
 -580.4487166 -477327.3457 -11407.86727
 580.4398445 -477327.3457 -11407.86789
 1868.256877 -477332.9409 -11029.25318
 3707.397351 -477338.5554 -10297.08654
 5361.03156 -477335.508 -9692.443586
 0 0 -0
 -3302.013856 -477436.4191 -3928.58288
 -2429.179673 -477423.7663 -5702.435028
 -1853.460858 -477416.04 -6508.510423
 -1056.928819 -477411.3829 -7008.97406
 -336.3183572 -477408.7636 -7254.694107
 336.3075963 -477408.7636 -7254.695841
 1056.91755 -477411.3829 -7008.975909
 1853.450237 -477416.04 -6508.515077
 2429.169105 -477423.7663 -5702.439666
 3302.003489 -477436.4191 -3928.588085
 -1253.675318 -477459.9321 -1520.796907
 -832.5290972 -477459.3332 -1939.925916
 -574.7472388 -477458.4714 -2224.636416
 -334.5168476 -477457.8441 -2401.345195
 -108.3026146 -477457.5106 -2487.000535
 108.2886531 -477457.5106 -2487.001502
 334.5028195 -477457.8441 -2401.346996
 574.7335266 -477458.4714 -2224.639498
 832.5151298 -477459.3332 -1939.929045
 1253.661832 -477459.9321 -1520.801262
 1253.663356 -477459.9323 1520.741715
 832.516311 -477459.3335 1939.870102
 574.7338967 -477458.4717 2224.580421
 334.502141 -477457.8444 2401.288779
 108.2865248 -477457.5109 2486.943321
 -108.3059108 -477457.5109 2486.943153
 -334.5211426 -477457.8444 2401.287309
 -574.7523152 -477458.4717 2224.578594
 -832.5347838 -477459.3335 1939.866636
 -1253.681489 -477459.9323 1520.737365
 3302.002056 -477436.4196 3928.527666
 2429.166369 -477423.767 5702.379666
 1853.44673 -477416.0408 6508.455669
 1056.912427 -477411.3837 7008.917649
 336.3012857 -477408.7645 7254.63757
 -336.3259264 -477408.7645 7254.636645
 -1056.937479 -477411.3837 7008.916168
 -1853.469952 -477416.0408 6508.45272
 -2429.189219 -477423.7669 5702.376844
 -3302.023062 -477436.4195 3928.52367
 0 0 0
 5361.026131 -477335.5092 9692.383821
 3707.390893 -477338.5568 10297.02703
 1868.248761 -477332.9423 11029.19393
 580.4306172 -477327.3471 11407.80972
 -580.4593173 -477327.3471 11407.80916
 -1868.277434 -477332.9423 11029.19193
 -3707.418575 -477338.5566 10297.02544
 -5361.053137 -477335.509 9692.382061
 0 0 -0
 0 0 0
 9448.41086 -477220.9826 11947.07507
 5447.824617 -477264.5836 12677.13491
 2446.971739 -477250.8794 14052.81794
 834.3244597 -477241.1544 14562.13339
 -834.3561071 -477241.1544 14562.13269
 -2447.003631 -477250.8794 14052.81505
 -5447.855233 -477264.5833 12677.13227
 -9448.440461 -477220.9821 11947.0729
 0 0 -0
 0 0 0
 0 0 0
 0 0 0
 3234.748389 -477178.3091 16194.72299
 1238.683127 -477179.6293 16429.80055
 -1238.717645 -477179.6293 16429.79882
 -3234.783042 -477178.309 16194.7181
 0 0 -0
 0 0 -0
 0 0 -0
 0 0 0
 0 0 0
 0 0 0
 -3330.314713 -477298.4508 -12123.08507
 -1275.898688 -477303.8512 -12299.47106
 1275.890908 -477303.8512 -12299.47202
 3330.308138 -477298.4508 -12123.08768
 0 0 -0
 0 0 -0
 0 0 -0
 0 0 0
 -9666.941508 -477282.3563 -8942.813
 -5627.273553 -477336.4978 -9490.676862
 -2557.988062 -477341.1803 -10522.62201
 -872.8736065 -477338.6412 -10905.55097
 872.8657326 -477338.6412 -10905.55177
 2557.980563 -477341.1803 -10522.62542
 5627.265463 -477336.4978 -9490.680749
 9666.931531 -477282.3564 -8942.817457
 0 0 -0
 0 0 0
 -5539.153181 -477376.723 -7256.269415
 -3854.699777 -477386.1625 -7711.319053
 -1962.675026 -477388.463 -8262.843316
 -612.9382154 -477387.0711 -8548.680622
 612.9302841 -477387.0711 -8548.681912
 1962.667525 -477388.463 -8262.846344
 3854.691518 -477386.1625 -7711.323099
 5539.143575 -477376.723 -7256.273525
 0 0 -0
 -3399.649036 -477442.8615 -2937.295621
 -2540.388187 -477438.1608 -4268.531802
 -1947.839057 -477435.1335 -4875.504904
 -1118.349724 -477433.786 -5253.626737
 -357.5045339 -477432.8773 -5439.779939
 357.4940798 -477432.8773 -5439.780734
 1118.339878 -477433.786 -5253.628643
 1947.828756 -477435.1335 -4875.508429
 2540.377662 -477438.1608 -4268.537113
 3399.638775 -477442.8615 -2937.301834
 -1291.568843 -477460.899 -1137.146343
 -871.2593638 -477460.9969 -1452.113017
 -607.2501342 -477460.7046 -1666.776579
 -355.6982896 -477460.4727 -1800.507328
 -115.6136396 -477460.3416 -1865.522643
 115.6000382 -477460.3416 -1865.523233
 355.6852099 -477460.4727 -1800.50984
 607.2375489 -477460.7046 -1666.779978
 871.2470989 -477460.9969 -1452.117709
 1291.556629 -477460.899 -1137.152264
 1291.559903 -477460.8991 1137.103677
 871.2492878 -477460.9971 1452.069594
 607.2389188 -477460.7047 1666.731948
 355.6851091 -477460.4728 1800.462569
 115.5988246 -477460.3417 1865.476525
 -115.6163463 -477460.3417 1865.475468
 -355.702537 -477460.4728 1800.460303
 -607.2552877 -477460.7047 1666.729307
 -871.2654187 -477460.997 1452.065077
 -1291.574837 -477460.8991 1137.098141
 3399.639231 -477442.8618 2937.252672
 2540.376717 -477438.1612 4268.488416
 1947.826747 -477435.134 4875.460802
 1118.336195 -477433.7865 5253.581676
 357.4891467 -477432.8778 5439.733633
 -357.510833 -477432.8778 5439.733226
 -1118.357546 -477433.7865 5253.579388
 -1947.847697 -477435.1339 4875.457429
 -2540.397159 -477438.1611 4268.484478
 -3399.657762 -477442.8617 2937.247914
 0 0 0
 5539.140045 -477376.7238 7256.225286
 3854.686182 -477386.1633 7711.275615
 1962.66067 -477388.4638 8262.798963
 612.9216367 -477387.0719 8548.635267
 -612.9482003 -477387.0719 8548.633531
 -1962.686076 -477388.4638 8262.796536
 -3854.711476 -477386.1632 7711.271721
 -5539.164699 -477376.7236 7256.222282
 0 0 -0
 0 0 0
 9666.927023 -477282.3574 8942.769455
 5627.259022 -477336.4989 9490.633143
 2557.971933 -477341.1814 10522.5784
 872.8559633 -477338.6423 10905.5046
 -872.8847341 -477338.6422 10905.50425
 -2558.000614 -477341.1813 10522.57495
 -5627.286566 -477336.4986 9490.629249
 -9666.953925 -477282.3569 8942.765604
 0 0 -0
 0 0 0
 0 0 0
 0 0 0
 3330.297713 -477298.452 12123.0415
 1275.880644 -477303.8524 12299.42545
 -1275.910136 -477303.8524 12299.42341
 -3330.328095 -477298.4519 12123.03732
 0 0 -0
 0 0 -0
 0 0 -0
 0 0 0
 0 0 0
 0 0 0
 -3399.099016 -477378.0074 -8399.732758
 -1302.700596 -477386.1632 -8522.05578
 1302.693554 -477386.1632 -8522.055325
 3399.092601 -477378.0074 -8399.733843
 0 0 -0
 0 0 -0
 0 0 -0
 0 0 0
 -9824.159833 -477322.7064 -6196.055067
 -5756.928573 -477384.0009 -6576.075207
 -2638.447285 -477401.0249 -7291.867505
 -900.8589973 -477403.3302 -7557.782393
 900.8512744 -477403.3302 -7557.78288
 2638.440324 -477401.0249 -7291.869436
 5756.922042 -477384.0009 -6576.079346
 9824.153119 -477322.7065 -6196.060624
 0 0 -0
 0 0 0
 -5667.896003 -477403.8814 -5027.952378
 -3961.716407 -477417.6545 -5344.091853
 -2031.643712 -477425.3237 -5727.477447
 -636.7528628 -477426.7939 -5926.405554
 636.7449572 -477426.7939 -5926.406365
 2031.636735 -477425.3237 -5727.480213
 3961.70975 -477417.6545 -5344.095833
 5667.88943 -477403.8814 -5027.958496
 0 0 -0
 -3469.9302 -477447.0602 -2033.611209
 -2621.013049 -477447.6468 -2957.385797
 -2016.793089 -477447.7816 -3379.300447
 -1163.539868 -477448.6873 -3642.590228
 -373.1553022 -477448.9513 -3772.392594
 373.1471121 -477448.9513 -3772.393307
 1163.531875 -477448.6873 -3642.592793
 2016.784985 -477447.7816 -3379.304104
 2621.00473 -477447.6468 -2957.3918
 3469.919819 -477447.0603 -2033.618154
 -1318.88379 -477461.5293 -787.3324106
 -899.3996583 -477462.093 -1006.056291
 -631.0797545 -477462.185 -1155.38049
 -371.3476658 -477462.223 -1248.585473
 -121.0392206 -477462.2313 -1293.968742
 121.0286447 -477462.2313 -1293.968935
 371.3369716 -477462.223 -1248.588585
 631.0692721 -477462.185 -1155.383981
 899.3893873 -477462.093 -1006.061729
 1318.87302 -477461.5293 -787.3375429
 1318.877218 -477461.5294 787.3011302
 899.3928328 -477462.0931 1006.025363
 631.0717023 -477462.1851 1155.348583
 371.3381965 -477462.2231 1248.553498
 121.0282282 -477462.2314 1293.934833
 -121.0411382 -477462.2314 1293.933738
 -371.3509188 -477462.2231 1248.55081
 -631.0846123 -477462.1851 1155.345356
 -899.4052527 -477462.093 1006.021598
 -1318.889777 -477461.5293 787.2974578
 3469.922743 -477447.0604 2033.580384
 2621.005349 -477447.6471 2957.354984
 2016.784324 -477447.7819 3379.268692
 1163.530185 -477448.6876 3642.558014
 373.1438668 -477448.9516 3772.35906
 -373.1601864 -477448.9516 3772.357942
 -1163.546111 -477448.6876 3642.555705
 -2016.800621 -477447.7818 3379.26568
 -2621.021445 -477447.647 2957.351691
 -3469.937449 -477447.0603 2033.577389
 0 0 0
 5667.887017 -477403.8818 5027.921842
 3961.706524 -477417.6549 5344.060485
 2031.632369 -477425.3241 5727.445463
 636.7395303 -477426.7944 5926.371961
 -636.7595699 -477426.7943 5926.371252
 -2031.652364 -477425.3241 5727.442989
 -3961.726519 -477417.6548 5344.057382
 -5667.906863 -477403.8816 5027.919082
 0 0 -0
 0 0 0
 9824.149734 -477322.707 6196.024321
 5756.917634 -477384.0015 6576.043975
 2638.434611 -477401.0255 7291.834739
 900.8446762 -477403.3308 7557.748558
 -900.8670814 -477403.3307 7557.747861
 -2638.457033 -477401.0254 7291.833114
 -5756.939759 -477384.0012 6576.040936
 -9824.171555 -477322.7066 6196.021225
 0 0 -0
 0 0 0
 0 0 0
 0 0 0
 3399.085831 -477378.008 8399.700212