# OOMMF OVF 2.0
#
# Segment count: 1
#
# Begin: Segment
# Begin: Header
#
# Title: Oxs_MinDriver::Magnetization
# Desc: Oxs vector field output
# Desc:  MIF source file: F:/Bogdan/UNIC/2022/Master_degree/Samples/Cylinder0_5000 1.mif
# Desc:  Iteration: 995, State id: 11149
# Desc:  Stage: 5, Stage iteration: 44
# Desc:  Stage simulation time: 0 s
# Desc:  Total simulation time: -2 s
# meshunit: m
# meshtype: rectangular
# xbase: -8.9999999999999995e-09
# ybase: -8.9999999999999995e-09
# zbase: -2.0999999999999999e-08
# xnodes: 10
# ynodes: 10
# znodes: 22
# xstepsize: 2.0000000000000001e-09
# ystepsize: 2.0000000000000001e-09
# zstepsize: 2.0000000000000001e-09
# xmin: -1e-08
# ymin: -1e-08
# zmin: -2.1999999999999998e-08
# xmax: 1e-08
# ymax: 1e-08
# zmax: 2.2000000000000005e-08
# valuedim: 3
# valuelabels: Magnetization_x Magnetization_y Magnetization_z
# valueunits: A/m A/m A/m
#
# End: Header
#
# Begin: Data Text
 0 0 0
 0 0 0
 0 0 0
 8010.18853 30094.79076 476447.2812
 3012.900243 30302.62608 476491.9145
 -3012.90024 30302.62607 476491.9145
 -8010.188528 30094.79077 476447.2812
 0 0 -0
 0 0 -0
 0 0 -0
 0 0 0
 22358.37423 22358.37402 476415.8661
 17757.15557 23299.55005 476564.4612
 10515.60308 25268.48251 476678.9246
 3553.709855 25794.02745 476753.5114
 -3553.709853 25794.02746 476753.5114
 -10515.60308 25268.48251 476678.9246
 -17757.15556 23299.55005 476564.4612
 -22358.37423 22358.37402 476415.8661
 0 0 -0
 0 0 0
 23299.55027 17757.15535 476564.4612
 18311.11608 18311.11587 476761.2373
 11343.48199 19071.86386 476948.0692
 3834.736266 19404.34253 477054.1244
 -3834.736262 19404.34251 477054.1244
 -11343.48199 19071.86387 476948.0692
 -18311.11608 18311.11586 476761.2373
 -23299.55026 17757.15535 476564.4612
 0 0 -0
 30094.79098 8010.188315 476447.2812
 25268.48273 10515.60287 476678.9246
 19071.86408 11343.48177 476948.0692
 11789.96525 11789.96504 477172.7829
 3983.212672 11985.79216 477296.9161
 -3983.21267 11985.79217 477296.9161
 -11789.96525 11789.96503 477172.7829
 -19071.86408 11343.48178 476948.0692
 -25268.48272 10515.60287 476678.9246
 -30094.79098 8010.188317 476447.2812
 30302.62629 3012.900031 476491.9145
 25794.02767 3553.709631 476753.5113
 19404.34274 3834.736059 477054.1244
 11985.79238 3983.212439 477296.9161
 4048.309583 4048.309373 477429.6741
 -4048.30958 4048.309354 477429.6741
 -11985.79239 3983.212457 477296.9161
 -19404.34273 3834.736045 477054.1244
 -25794.02767 3553.709639 476753.5113
 -30302.62628 3012.900028 476491.9145
 30302.62629 -3012.900458 476491.9145
 25794.02767 -3553.710061 476753.5113
 19404.34274 -3834.736493 477054.1244
 11985.79239 -3983.212877 477296.9161
 4048.309582 -4048.309812 477429.6741
 -4048.30958 -4048.309793 477429.6741
 -11985.79238 -3983.212894 477296.9161
 -19404.34274 -3834.73648 477054.1244
 -25794.02767 -3553.710069 476753.5113
 -30302.62629 -3012.900455 476491.9145
 30094.79098 -8010.18874 476447.2812
 25268.48272 -10515.6033 476678.9246
 19071.86408 -11343.4822 476948.0692
 11789.96525 -11789.96548 477172.7829
 3983.212673 -11985.79259 477296.9161
 -3983.21267 -11985.79261 477296.9161
 -11789.96525 -11789.96546 477172.7829
 -19071.86408 -11343.48221 476948.0692
 -25268.48272 -10515.6033 476678.9246
 -30094.79098 -8010.188742 476447.2812
 0 0 0
 23299.55027 -17757.15578 476564.4612
 18311.11608 -18311.1163 476761.2372
 11343.482 -19071.86429 476948.0692
 3834.736265 -19404.34296 477054.1244
 -3834.736263 -19404.34295 477054.1244
 -11343.48199 -19071.8643 476948.0692
 -18311.11608 -18311.11629 476761.2372
 -23299.55027 -17757.15578 476564.4612
 0 0 -0
 0 0 0
 22358.37423 -22358.37444 476415.8661
 17757.15557 -23299.55048 476564.4612
 10515.60308 -25268.48294 476678.9246
 3553.709856 -25794.02788 476753.5113
 -3553.709853 -25794.02789 476753.5113
 -10515.60308 -25268.48294 476678.9246
 -17757.15556 -23299.55048 476564.4612
 -22358.37423 -22358.37444 476415.8661
 0 0 -0
 0 0 0
 0 0 0
 0 0 0
 8010.188531 -30094.79119 476447.2812
 3012.900243 -30302.6265 476491.9145
 -3012.900241 -30302.6265 476491.9145
 -8010.188529 -30094.79119 476447.2812
 0 0 -0
 0 0 -0
 0 0 -0
 0 0 0
 0 0 0
 0 0 0
 6677.525429 25916.4648 476713.3508
 2570.071234 26109.79062 476742.6401
 -2570.071232 26109.79062 476742.6401
 -6677.525426 25916.4648 476713.3508
 0 0 -0
 0 0 -0
 0 0 -0
 0 0 0
 19217.99721 19217.997 476689.8452
 15475.886 20106.70605 476789.3546
 9142.210744 22100.77938 476864.6001
 3109.562381 22707.62131 476913.5832
 -3109.562377 22707.62128 476913.5832
 -9142.210744 22100.7794 476864.6001
 -15475.88599 20106.70604 476789.3546
 -19217.99721 19217.997 476689.8452
 0 0 -0
 0 0 0
 20106.70625 15475.8858 476789.3546
 16118.88354 16118.88331 476919.5262
 10074.76614 16958.24493 477056.3785
 3421.258722 17347.61329 477136.4863
 -3421.258722 17347.61333 477136.4863
 -10074.76613 16958.24489 477056.3785
 -16118.88354 16118.88334 476919.5262
 -20106.70624 15475.88579 476789.3546
 0 0 -0
 25916.46501 6677.525227 476713.3508
 22100.7796 9142.210516 476864.6001
 16958.24512 10074.76596 477056.3785
 10583.56933 10583.56909 477229.3447
 3590.843602 10810.77729 477328.0887
 -3590.843596 10810.77724 477328.0887
 -10583.56934 10583.56913 477229.3447
 -16958.24511 10074.76592 477056.3785
 -22100.77961 9142.210535 476864.6001
 -25916.46501 6677.525222 476713.3508
 26109.79083 2570.071017 476742.6401
 22707.62151 3109.562194 476913.5832
 17347.61352 3421.258474 477136.4863
 10810.77747 3590.843426 477328.0887
 3665.993597 3665.993349 477435.8515
 -3665.993599 3665.993404 477435.8515
 -10810.77746 3590.843377 477328.0887
 -17347.61353 3421.258511 477136.4863
 -22707.62149 3109.562172 476913.5832
 -26109.79083 2570.071024 476742.6401
 26109.79083 -2570.071433 476742.6401
 22707.6215 -3109.562612 476913.5832
 17347.61353 -3421.258898 477136.4863
 10810.77747 -3590.84385 477328.0887
 3665.993596 -3665.993777 477435.8515
 -3665.993589 -3665.99383 477435.8515
 -10810.77748 -3590.843804 477328.0887
 -17347.61351 -3421.258933 477136.4863
 -22707.62151 -3109.562591 476913.5832
 -26109.79082 -2570.07144 476742.6401
 25916.46501 -6677.52564 476713.3508
 22100.77961 -9142.210935 476864.6001
 16958.24511 -10074.76637 477056.3785
 10583.56934 -10583.56951 477229.3447
 3590.843603 -10810.77771 477328.0887
 -3590.843604 -10810.77766 477328.0887
 -10583.56933 -10583.56955 477229.3447
 -16958.24512 -10074.76635 477056.3785
 -22100.7796 -9142.210951 476864.6001
 -25916.46501 -6677.525636 476713.3508
 0 0 0
 20106.70625 -15475.88621 476789.3545
 16118.88355 -16118.88373 476919.5262
 10074.76614 -16958.24535 477056.3785
 3421.258721 -17347.61371 477136.4863
 -3421.258716 -17347.61374 477136.4863
 -10074.76614 -16958.24532 477056.3785
 -16118.88354 -16118.88375 476919.5262
 -20106.70625 -15475.8862 476789.3545
 0 0 -0
 0 0 0
 19217.99721 -19217.99741 476689.8451
 15475.886 -20106.70646 476789.3545
 9142.210746 -22100.7798 476864.6001
 3109.562382 -22707.62172 476913.5832
 -3109.562381 -22707.6217 476913.5832
 -9142.21074 -22100.77982 476864.6001
 -15475.886 -20106.70645 476789.3545
 -19217.99721 -19217.99742 476689.8451
 0 0 -0
 0 0 0
 0 0 0
 0 0 0
 6677.525431 -25916.46522 476713.3507
 2570.071234 -26109.79103 476742.6401
 -2570.071231 -26109.79104 476742.6401
 -6677.525429 -25916.46521 476713.3507
 0 0 -0
 0 0 -0
 0 0 -0
 0 0 0
 0 0 0
 0 0 0
 5293.642029 20944.14335 476975.0429
 2050.514953 21107.6475 476992.8028
 -2050.51495 21107.64749 476992.8028
 -5293.642028 20944.14336 476975.0429
 0 0 -0
 0 0 -0
 0 0 -0
 0 0 0
 15524.29436 15524.29417 476958.975
 12571.39134 16278.37143 477020.8025
 7415.673379 18001.07858 477066.9138
 2527.981529 18567.57101 477096.1391
 -2527.981529 18567.57104 477096.1391
 -7415.673371 18001.07856 477066.9138
 -12571.39134 16278.37144 477020.8025
 -15524.29436 15524.29416 476958.975
 0 0 -0
 0 0 0
 16278.37164 12571.39112 477020.8025
 13181.23541 13181.23524 477099.97
 8295.014199 13978.00391 477187.2583
 2827.556354 14367.19743 477239.4157
 -2827.556347 14367.19738 477239.4157
 -8295.014207 13978.00395 477187.2583
 -13181.2354 13181.23521 477099.97
 -16278.37164 12571.39114 477020.8025
 0 0 -0
 20944.14356 5293.641823 476975.0429
 18001.07877 7415.673209 477066.9138
 13978.00415 8295.013949 477187.2583
 8801.390855 8801.390706 477301.7309
 2999.581314 9035.961915 477369.066
 -2999.581318 9035.961985 477369.066
 -8801.390838 8801.390644 477301.7309
 -13978.00416 8295.013994 477187.2583
 -18001.07875 7415.673183 477066.9138
 -20944.14356 5293.641829 476975.0429
 21107.64769 2050.514767 476992.8028
 18567.57122 2527.981287 477096.1391
 14367.1976 2827.55621 477239.4157
 9035.962166 2999.581044 477369.066
 3078.211287 3078.211141 477444.1544
 -3078.211278 3078.211064 477444.1544
 -9035.962182 2999.581111 477369.066
 -14367.19758 2827.556159 477239.4157
 -18567.57124 2527.981318 477096.1391
 -21107.64769 2050.514757 476992.8028
 21107.64769 -2050.515165 476992.8028
 18567.57123 -2527.981688 477096.1391
 14367.1976 -2827.556613 477239.4157
 9035.962157 -2999.581452 477369.066
 3078.211311 -3078.211546 477444.1544
 -3078.211316 -3078.211474 477444.1544
 -9035.962137 -2999.581516 477369.066
 -14367.19762 -2827.556564 477239.4157
 -18567.57121 -2527.981718 477096.1391
 -21107.6477 -2050.515155 476992.8028
 20944.14356 -5293.64222 476975.0428
 18001.07876 -7415.673607 477066.9138
 13978.00415 -8295.014355 477187.2582
 8801.390865 -8801.391106 477301.7309
 2999.581293 -9035.962326 477369.066
 -2999.581285 -9035.962387 477369.066
 -8801.390878 -8801.391053 477301.7309
 -13978.00413 -8295.014395 477187.2582
 -18001.07878 -7415.673584 477066.9138
 -20944.14355 -5293.642226 476975.0428
 0 0 0
 16278.37164 -12571.39152 477020.8025
 13181.23542 -13181.23564 477099.97
 8295.014192 -13978.00431 477187.2582
 2827.556371 -14367.19783 477239.4156
 -2827.556373 -14367.19778 477239.4156
 -8295.01418 -13978.00435 477187.2582
 -13181.23543 -13181.23561 477099.97
 -16278.37163 -12571.39153 477020.8025
 0 0 -0
 0 0 0
 15524.29437 -15524.29457 476958.975
 12571.39134 -16278.37183 477020.8025
 7415.673385 -18001.07898 477066.9138
 2527.981518 -18567.57141 477096.1391
 -2527.981514 -18567.57144 477096.1391
 -7415.673388 -18001.07896 477066.9138
 -12571.39133 -16278.37184 477020.8025
 -15524.29437 -15524.29456 476958.975
 0 0 -0
 0 0 0
 0 0 0
 0 0 0
 5293.64203 -20944.14375 476975.0428
 2050.514957 -21107.6479 476992.8028
 -2050.514956 -21107.64789 476992.8028
 -5293.642027 -20944.14376 476975.0428
 0 0 -0
 0 0 -0
 0 0 -0
 0 0 0
 0 0 0
 0 0 0
 4078.15167 16312.92602 477167.82
 1581.94151 16440.39951 477178.2497
 -1581.941509 16440.39953 477178.2497
 -4078.151667 16312.92601 477167.82
 0 0 -0
 0 0 -0
 0 0 -0
 0 0 0
 12092.53742 12092.53723 477157.6389
 9807.823458 12686.48358 477194.6469
 5777.721682 14061.75917 477221.915
 1970.358295 14529.35421 477238.8153
 -1970.35829 14529.35417 477238.8153
 -5777.721687 14061.7592 477221.915
 -9807.82345 12686.48356 477194.6469
 -12092.53742 12092.53723 477157.6389
 0 0 -0
 0 0 0
 12686.48375 9807.823288 477194.6469
 10314.88054 10314.8803 477241.1107
 6513.805507 10985.41989 477293.1617
 2225.110624 11322.92332 477324.5349
 -2225.110628 11322.92338 477324.5349
 -6513.805491 10985.41984 477293.1617
 -10314.88055 10314.88034 477241.1107
 -12686.48374 9807.823275 477194.6469
 0 0 -0
 16312.9262 4078.151493 477167.82
 14061.75939 5777.721449 477221.915
 10985.42003 6513.805383 477293.1617
 6954.811075 6954.810806 477362.6845
 2377.476408 7165.051234 477404.316
 -2377.476398 7165.051164 477404.316
 -6954.811094 6954.810868 477362.6844
 -10985.42 6513.805338 477293.1617
 -14061.7594 5777.721474 477221.915
 -16312.92619 4078.151487 477167.82
 16440.39971 1581.941302 477178.2497
 14529.35437 1970.358161 477238.8153
 11322.92356 2225.110348 477324.5349
 7165.051359 2377.476308 477404.316
 2449.07563 2449.075352 477451.4377
 -2449.075637 2449.075427 477451.4377
 -7165.051333 2377.476242 477404.316
 -11322.92359 2225.110398 477324.5349
 -14529.35435 1970.35813 477238.8153
 -16440.39972 1581.941312 477178.2497
 16440.39971 -1581.94168 477178.2497
 14529.35439 -1970.35854 477238.8153
 11322.92354 -2225.110732 477324.5349
 7165.051406 -2377.476691 477404.316
 2449.07556 -2449.07574 477451.4377
 -2449.075548 -2449.075811 477451.4377
 -7165.051428 -2377.476628 477404.316
 -11322.92351 -2225.11078 477324.5349
 -14529.35441 -1970.358511 477238.8153
 -16440.3997 -1581.941689 477178.2497
 16312.9262 -4078.151869 477167.82
 14061.75938 -5777.72183 477221.915
 10985.42005 -6513.805762 477293.1617
 6954.811035 -6954.811195 477362.6844
 2377.47647 -7165.051613 477404.316
 -2377.476476 -7165.051554 477404.316
 -6954.811012 -6954.811247 477362.6844
 -10985.42007 -6513.805723 477293.1617
 -14061.75936 -5777.721852 477221.915
 -16312.92621 -4078.151864 477167.82
 0 0 0
 12686.48376 -9807.823667 477194.6469
 10314.88052 -10314.88069 477241.1107
 6513.80554 -10985.42026 477293.1617
 2225.110577 -11322.92371 477324.5349
 -2225.110569 -11322.92376 477324.5349
 -6513.805552 -10985.42023 477293.1617
 -10314.88051 -10314.88071 477241.1107
 -12686.48376 -9807.823656 477194.6469
 0 0 -0
 0 0 0
 12092.53743 -12092.53761 477157.6389
 9807.823469 -12686.48395 477194.6469
 5777.721664 -14061.75955 477221.915
 1970.358325 -14529.35459 477238.8153
 -1970.358326 -14529.35456 477238.8153
 -5777.721655 -14061.75957 477221.915
 -9807.823472 -12686.48394 477194.6469
 -12092.53742 -12092.53761 477157.6389
 0 0 -0
 0 0 0
 0 0 0
 0 0 0
 4078.151677 -16312.9264 477167.82
 1581.941502 -16440.39989 477178.2497
 -1581.941499 -16440.3999 477178.2497
 -4078.151676 -16312.92639 477167.82
 0 0 -0
 0 0 -0
 0 0 -0
 0 0 0
 0 0 0
 0 0 0
 3075.341349 12383.32558 477293.4808
 1193.214204 12477.41891 477299.4464
 -1193.214202 12477.4189 477299.4464
 -3075.341349 12383.32559 477293.4808
 0 0 -0
 0 0 -0
 0 0 -0
 0 0 0
 9181.690123 9181.689954 477287.4023
 7446.488612 9628.174739 477308.8302
 4380.507692 10679.63176 477324.4472
 1493.438487 11041.01155 477333.9889
 -1493.438489 11041.01157 477333.9889
 -4380.507682 10679.63174 477324.4472
 -7446.488617 9628.174748 477308.8302
 -9181.690118 9181.689951 477287.4023
 0 0 -0
 0 0 0
 9628.174937 7446.488408 477308.8302
 7837.951311 7837.951185 477335.3165
 4955.621336 8362.323945 477365.0434
 1694.285338 8630.245742 477382.9904
 -1694.285329 8630.245704 477382.9904
 -4955.621352 8362.323977 477365.0434
 -7837.951291 7837.951163 477335.3165
 -9628.174945 7446.488417 477308.8302
 0 0 -0
 12383.32577 3075.341157 477293.4808
 10679.63191 4380.507566 477324.4472
 8362.32419 4955.621072 477365.0434
 5307.500417 5307.50033 477404.9981
 1817.185655 5478.091915 477429.1148
 -1817.185663 5478.091962 477429.1148
 -5307.50039 5307.500289 477404.9981
 -8362.324218 4955.621102 477365.0434
 -10679.63188 4380.507549 477324.4472
 -12383.32577 3075.341161 477293.4808
 12477.41908 1193.214049 477299.4464
 11041.01176 1493.438236 477333.9889
 8630.245865 1694.285262 477382.9904
 5478.092182 1817.185356 477429.1148
 1875.95631 1875.956233 477456.6293
 -1875.956297 1875.956184 477456.6293
 -5478.09221 1817.185399 477429.1148
 -8630.245827 1694.285229 477382.9904
 -11041.01179 1493.438256 477333.9889
 -12477.41907 1193.214043 477299.4464
 12477.41909 -1193.214406 477299.4464
 11041.01173 -1493.438596 477333.9889
 8630.245927 -1694.285621 477382.9904
 5478.092085 -1817.18572 477429.1148
 1875.956443 -1875.956594 477456.6293
 -1875.956453 -1875.95655 477456.6293
 -5478.092052 -1817.18576 477429.1148
 -8630.245961 -1694.285591 477382.9904
 -11041.0117 -1493.438614 477333.9889
 -12477.4191 -1193.2144 477299.4464
 12383.32577 -3075.341514 477293.4808
 10679.63193 -4380.507923 477324.4472
 8362.324138 -4955.621436 477365.0434
 5307.500504 -5307.500687 477404.9981
 1817.185538 -5478.092284 477429.1148
 -1817.185526 -5478.092319 477429.1148
 -5307.500528 -5307.500656 477404.9981
 -8362.324106 -4955.621459 477365.0434
 -10679.63195 -4380.507909 477324.4472
 -12383.32576 -3075.341517 477293.4808
 0 0 0
 9628.174927 -7446.488769 477308.8302
 7837.951352 -7837.951541 477335.3164
 4955.621272 -8362.324311 477365.0434
 1694.285428 -8630.246097 477382.9904
 -1694.285433 -8630.246072 477382.9904
 -4955.621253 -8362.324333 477365.0434
 -7837.951369 -7837.951526 477335.3164
 -9628.174916 -7446.488776 477308.8302
 0 0 -0
 0 0 0
 9181.690134 -9181.690311 477287.4023
 7446.488599 -9628.175099 477308.8302
 4380.507732 -10679.63212 477324.4472
 1493.438433 -11041.01192 477333.9889
 -1493.438427 -11041.01193 477333.9889
 -4380.507739 -10679.6321 477324.4472
 -7446.48859 -9628.175105 477308.8302
 -9181.690136 -9181.690309 477287.4023
 0 0 -0
 0 0 0
 0 0 0
 0 0 0
 3075.341342 -12383.32594 477293.4808
 1193.214223 -12477.41927 477299.4464
 -1193.214222 -12477.41927 477299.4464
 -3075.341338 -12383.32595 477293.4808
 0 0 -0
 0 0 -0
 0 0 -0
 0 0 0
 0 0 0
 0 0 0
 2274.959907 9199.147248 477369.9525
 882.6019976 9266.175679 477373.261
 -882.6019973 9266.17568 477373.261
 -2274.959903 9199.147248 477369.9525
 0 0 -0
 0 0 -0
 0 0 -0
 0 0 0
 6822.551965 6822.55179 477366.5016
 5529.403807 7147.87326 477378.4713
 3248.297697 7928.682797 477387.1132
 1106.85414 8197.059051 477392.3485
 -1106.854134 8197.059049 477392.3485
 -3248.297706 7928.682799 477387.1132
 -5529.403798 7147.873259 477378.4713
 -6822.551967 6822.55179 477366.5016
 0 0 -0
 0 0 0
 7147.873406 5529.403666 477378.4713
 5818.362774 5818.362547 477393.0923
 3678.607448 6209.947959 477409.4424
 1257.809935 6411.277033 477419.2966
 -1257.809941 6411.277036 477419.2966
 -3678.607427 6209.947957 477409.4424
 -5818.362794 5818.362548 477393.0923
 -7147.873394 5529.403665 477378.4713
 0 0 -0
 9199.147411 2274.959754 477369.9525
 7928.683003 3248.297469 477387.1132
 6209.94806 3678.60737 477409.4424
 3944.11138 3944.111106 477431.4184
 1351.104012 4073.849683 477444.7084
 -1351.103999 4073.849683 477444.7084
 -3944.111408 3944.111106 477431.4184
 -6209.948024 3678.607371 477409.4424
 -7928.683026 3248.297469 477387.1132
 -9199.147403 2274.959754 477369.9525
 9266.175859 882.6018022 477373.261
 8197.059189 1106.854049 477392.3485
 6411.277265 1257.809647 477419.2966
 4073.849765 1351.103969 477444.7084
 1396.109412 1396.109127 477459.9177
 -1396.109424 1396.109123 477459.9177
 -4073.849728 1351.103972 477444.7084
 -6411.277306 1257.809645 477419.2966
 -8197.059155 1106.85405 477392.3485
 -9266.175869 882.6018016 477373.261
 9266.175844 -882.6021398 477373.261
 8197.059243 -1106.854387 477392.3485
 6411.277167 -1257.809989 477419.2966
 4073.849915 -1351.104309 477444.7084
 1396.109216 -1396.109471 477459.9177
 -1396.109201 -1396.109464 477459.9177
 -4073.849949 -1351.104316 477444.7084
 -6411.277123 -1257.809984 477419.2966
 -8197.059274 -1106.85439 477392.3485
 -9266.175831 -882.6021389 477373.261
 9199.147423 -2274.96009 477369.9525
 7928.682961 -3248.297809 477387.1132
 6209.948148 -3678.607708 477409.4424
 3944.111249 -3944.111452 477431.4184
 1351.104186 -4073.85002 477444.7084
 -1351.104196 -4073.85003 477444.7084
 -3944.111217 -3944.111443 477431.4184
 -6209.948181 -3678.607714 477409.4424
 -7928.682935 -3248.297806 477387.1132
 -9199.147428 -2274.960091 477369.9525
 0 0 0
 7147.873433 -5529.404004 477378.4713
 5818.362717 -5818.36289 477393.0923
 3678.60755 -6209.948295 477409.4424
 1257.809803 -6411.27738 477419.2966
 -1257.809793 -6411.277371 477419.2966
 -3678.607569 -6209.948303 477409.4424
 -5818.362693 -5818.362885 477393.0923
 -7147.873443 -5529.404006 477378.4713
 0 0 -0
 0 0 0
 6822.551964 -6822.552129 477366.5016
 5529.403837 -7147.873597 477378.4713
 3248.297642 -7928.683141 477387.1132
 1106.854221 -8197.059388 477392.3485
 -1106.854224 -8197.059394 477392.3485
 -3248.29763 -7928.683136 477387.1132
 -5529.403844 -7147.8736 477378.4713
 -6822.551959 -6822.552128 477366.5016
 0 0 -0
 0 0 0
 0 0 0
 0 0 0
 2274.959923 -9199.147589 477369.9525
 882.6019729 -9266.176021 477373.261
 -882.6019701 -9266.176019 477373.261
 -2274.959924 -9199.14759 477369.9525
 0 0 -0
 0 0 -0
 0 0 -0
 0 0 0
 0 0 0
 0 0 0
 1646.034824 6674.339446 477414.5107
 638.4970338 6720.807323 477416.2695
 -638.4970312 6720.807332 477416.2695
 -1646.034826 6674.33944 477414.5107
 0 0 -0
 0 0 -0
 0 0 -0
 0 0 0
 4951.28498 4951.28483 477412.6526
 4009.358004 5182.15606 477419.0419
 2352.443422 5746.761398 477423.6191
 801.1342585 5939.942207 477426.3782
 -801.1342622 5939.942177 477426.3782
 -2352.443409 5746.761422 477423.6191
 -4009.358012 5182.156048 477419.0419
 -4951.284975 4951.284834 477412.6526
 0 0 -0
 0 0 0
 5182.156239 4009.357819 477419.0419
 4215.653014 4215.652907 477426.7775
 2663.722917 4498.018909 477435.3817
 910.544178 4643.41737 477440.5522
 -910.5441676 4643.41742 477440.5522
 -2663.722939 4498.018867 477435.3817
 -4215.652989 4215.652936 477426.7775
 -5182.15625 4009.357807 477419.0419
 0 0 -0
 6674.339614 1646.034651 477414.5107
 5746.761529 2352.443319 477423.6191
 4498.019131 2663.722669 477435.3817
 2856.037658 2856.03759 477446.9158
 978.3201043 2950.24472 477453.8828
 -978.3201161 2950.244653 477453.8828
 -2856.037624 2856.037649 477446.9158
 -4498.019168 2663.722625 477435.3817
 -5746.7615 2352.443344 477423.6191
 -6674.33962 1646.034645 477414.5107
 6720.807477 638.4969003 477416.2695
 5939.942394 801.13402 477426.3782
 4643.417483 910.5441298 477440.5522
 2950.244958 978.3198221 477453.8828
 1011.115033 1011.11497 477461.8588
 -1011.115016 1011.115048 477461.8588
 -2950.244996 978.3197533 477453.8828
 -4643.417435 910.5441823 477440.5522
 -5939.942429 801.1339882 477426.3782
 -6720.807463 638.4969104 477416.2695
 6720.807498 -638.4972197 477416.2695
 5939.942327 -801.1343409 477426.3782
 4643.417608 -910.5444509 477440.5522
 2950.244773 -978.3201459 477453.8828
 1011.115272 -1011.115292 477461.8588
 -1011.115286 -1011.115373 477461.8588
 -2950.244732 -978.3200751 477453.8828
 -4643.417653 -910.5445048 477440.5522
 -5939.94229 -801.1343084 477426.3782
 -6720.80751 -638.4972299 477416.2695
 6674.339604 -1646.03497 477414.5107
 5746.761586 -2352.443639 477423.6191
 4498.019025 -2663.722992 477435.3817
 2856.037822 -2856.037911 477446.9158
 978.3198932 -2950.245046 477453.8828
 -978.3198789 -2950.244974 477453.8828
 -2856.037854 -2856.037974 477446.9158
 -4498.018985 -2663.722945 477435.3817
 -5746.761612 -2352.443665 477423.6191
 -6674.339595 -1646.034963 477414.5107
 0 0 0
 5182.156214 -4009.358142 477419.0419
 4215.653092 -4215.653227 477426.7775
 2663.722796 -4498.019234 477435.3817
 910.5443402 -4643.417689 477440.5522
 -910.5443482 -4643.417746 477440.5522
 -2663.722772 -4498.019186 477435.3817
 -4215.653115 -4215.65326 477426.7775
 -5182.1562 -4009.358128 477419.0419
 0 0 -0
 0 0 0
 4951.284997 -4951.285151 477412.6526
 4009.357977 -5182.156382 477419.0419
 2352.443494 -5746.761719 477423.6191
 801.134161 -5939.942532 477426.3782
 -801.1341548 -5939.942498 477426.3782
 -2352.443504 -5746.761746 477423.6191
 -4009.357966 -5182.156368 477419.0419
 -4951.285 -4951.285156 477412.6526
 0 0 -0
 0 0 0
 0 0 0
 0 0 0
 1646.034809 -6674.339771 477414.5107
 638.4970661 -6720.807645 477416.2695
 -638.4970661 -6720.807656 477416.2695
 -1646.034806 -6674.339764 477414.5107
 0 0 -0
 0 0 -0
 0 0 -0
 0 0 0
 0 0 0
 0 0 0
 1151.817983 4678.770396 477439.6859
 446.7104774 4709.989858 477440.5594
 -446.7104779 4709.989836 477440.5594
 -1151.81798 4678.770409 477439.6859
 0 0 -0
 0 0 -0
 0 0 -0
 0 0 0
 3471.677041 3471.676885 477438.7565
 2808.904652 3630.176601 477441.937
 1646.416052 4024.320671 477444.2014
 560.401503 4158.382484 477445.5624
 -560.4014967 4158.382552 477445.5624
 -1646.416064 4024.320617 477444.2014
 -2808.904642 3630.176628 477441.937
 -3471.677044 3471.676876 477438.7565
 0 0 -0
 0 0 0
 3630.176739 2808.904521 477441.937
 2950.871348 2950.871158 477445.7624
 1863.13142 3146.793314 477449.995
 636.6178135 3247.606941 477452.5307
 -636.6178224 3247.60683 477452.5307
 -1863.131395 3146.793409 477449.995
 -2950.871373 2950.871093 477445.7624
 -3630.176725 2808.904547 477441.937
 0 0 -0
 4678.770547 1151.817845 477439.6859
 4024.32084 1646.415854 477444.2014
 3146.79343 1863.131335 477449.995
 1996.750846 1996.750629 477455.6495
 683.762652 2062.182081 477459.0571
 -683.7626371 2062.182227 477459.0571
 -1996.75088 1996.750501 477455.6495
 -3146.793388 1863.131429 477449.995
 -4024.320869 1646.4158 477444.2014
 -4678.770538 1151.817858 477439.6859
 4709.990013 446.7103029 477440.5594
 4158.382632 560.4014157 477445.5624
 3247.607114 636.6175698 477452.5307
 2062.182197 683.7625861 477459.0571
 706.5745554 706.574342 477462.9544
 -706.5745707 706.5741766 477462.9544
 -2062.182154 683.7627324 477459.0571
 -3247.607163 636.6174584 477452.5307
 -4158.382592 560.401483 477445.5624
 -4709.990025 446.7102816 477440.5594
 4709.989994 -446.710607 477440.5594
 4158.3827 -560.4017207 477445.5624
 3247.606991 -636.6178759 477452.5307
 2062.182384 -683.762893 477459.0571
 706.5743134 -706.5746493 477462.9544
 -706.5742961 -706.574484 477462.9544
 -2062.182425 -683.7630392 477459.0571
 -3247.606939 -636.6177645 477452.5307
 -4158.382737 -560.4017879 477445.5624
 -4709.989979 -446.7105857 477440.5594
 4678.770562 -1151.818148 477439.6859
 4024.320788 -1646.416159 477444.2014
 3146.793539 -1863.131641 477449.995
 1996.750682 -1996.750935 477455.6495
 683.7628668 -2062.182388 477459.0571
 -683.7628797 -2062.182534 477459.0571
 -1996.750646 -1996.750808 477455.6495
 -3146.793579 -1863.131736 477449.995
 -4024.320757 -1646.416105 477444.2014
 -4678.770569 -1151.818161 477439.6859
 0 0 0
 3630.176772 -2808.904827 477441.937
 2950.871276 -2950.871464 477445.7624
 1863.131546 -3146.793621 477449.995
 636.6176499 -3247.607249 477452.5307
 -636.6176391 -3247.607137 477452.5307
 -1863.131569 -3146.793716 477449.995
 -2950.871249 -2950.871399 477445.7624
 -3630.176784 -2808.904854 477441.937
 0 0 -0
 0 0 0
 3471.677038 -3471.677191 477438.7565
 2808.904689 -3630.176907 477441.937
 1646.415983 -4024.320978 477444.2014
 560.4016034 -4158.382792 477445.5624
 -560.4016077 -4158.382859 477445.5624
 -1646.41597 -4024.320925 477444.2014
 -2808.904697 -3630.176934 477441.937
 -3471.677033 -3471.677182 477438.7565
 0 0 -0
 0 0 0
 0 0 0
 0 0 0
 1151.818004 -4678.770705 477439.6859
 446.7104466 -4709.990166 477440.5594
 -446.7104442 -4709.990144 477440.5594
 -1151.818005 -4678.770718 477439.6859
 0 0 -0
 0 0 -0
 0 0 -0
 0 0 0
 0 0 0
 0 0 0
 756.6462231 3077.021398 477453.4854
 293.4044445 3096.843873 477453.8666
 -293.4044422 3096.843907 477453.8666
 -756.646225 3077.021377 477453.4854
 0 0 -0
 0 0 -0
 0 0 -0
 0 0 0
 2283.587494 2283.587352 477453.0781
 1846.367861 2386.042019 477454.468
 1081.398304 2644.263237 477455.4532
 367.9279082 2731.610531 477456.0443
 -367.927913 2731.610424 477456.0443
 -1081.398291 2644.263322 477455.4532
 -1846.36787 2386.041976 477454.468
 -2283.587489 2283.587367 477453.0781
 0 0 -0
 0 0 0
 2386.042166 1846.367706 477454.468
 1938.199818 1938.199685 477456.1321
 1222.886152 2065.736655 477457.9652
 417.6868513 2131.26531 477459.0606
 -417.6868403 2131.265487 477459.0606
 -1222.886177 2065.736505 477457.9652
 -1938.199791 1938.199786 477456.1321
 -2386.042179 1846.367664 477454.468
 0 0 -0
 3077.021543 756.6460708 477453.4854
 2644.263391 1081.398185 477455.4532
 2065.736799 1222.885975 477457.9652
 1309.857477 1309.857342 477460.4066
 448.3811268 1352.385096 477461.8742
 -448.3811406 1352.384867 477461.8742
 -1309.85744 1309.857542 477460.4066
 -2065.736842 1222.885827 477457.9652
 -2644.263359 1081.398269 477455.4532
 -3077.02155 756.6460507 477453.4854
 3096.844029 293.4043136 477453.8666
 2731.610656 367.9277212 477456.0443
 2131.265487 417.6867529 477459.0606
 1352.38522 448.3809489 477461.8742
 463.213497 463.2133411 477463.5506
 -463.2134793 463.2135967 477463.5506
 -1352.385263 448.380723 477461.8742
 -2131.265435 417.6869249 477459.0606
 -2731.610695 367.9276174 477456.0443
 -3096.844015 293.4043464 477453.8666
 3096.844044 -293.4046055 477453.8666
 2731.61061 -367.9280133 477456.0443
 2131.265578 -417.6870474 477459.0606
 1352.385077 -448.3812418 477461.8742
 463.2136917 -463.2136373 477463.5506
 -463.2137079 -463.2138897 477463.5506
 -1352.385032 -448.3810186 477461.8742
 -2131.26563 -417.6872174 477459.0606
 -2731.61057 -367.9279106 477456.0443
 -3096.844057 -293.404638 477453.8666
 3077.021537 -756.6463615 477453.4854
 2644.263431 -1081.398479 477455.4532
 2065.736722 -1222.886267 477457.9652
 1309.857605 -1309.85764 477460.4066
 448.3809546 -1352.385387 477461.8742
 -448.3809395 -1352.385166 477461.8742
 -1309.857641 -1309.857833 477460.4066
 -2065.736679 -1222.886124 477457.9652
 -2644.26346 -1081.39856 477455.4532
 -3077.021528 -756.6463419 477453.4854
 0 0 0
 2386.04215 -1846.367999 477454.468
 1938.199877 -1938.199981 477456.1321
 1222.886058 -2065.736946 477457.9652
 417.6869841 -2131.26561 477459.0606
 -417.6869935 -2131.265777 477459.0606
 -1222.886032 -2065.736804 477457.9652
 -1938.199903 -1938.200078 477456.1321
 -2386.042135 -1846.367959 477454.468
 0 0 -0
 0 0 0
 2283.587508 -2283.587646 477453.0781
 1846.367841 -2386.042311 477454.468
 1081.398362 -2644.263535 477455.4532
 367.9278284 -2731.610823 477456.0443
 -367.9278222 -2731.610723 477456.0443
 -1081.398374 -2644.263614 477455.4532
 -1846.36783 -2386.042271 477454.468
 -2283.587512 -2283.58766 477453.0781
 0 0 -0
 0 0 0
 0 0 0
 0 0 0
 756.6462117 -3077.021694 477453.4854
 293.4044711 -3096.84417 477453.8666
 -293.4044719 -3096.844202 477453.8666
 -756.6462084 -3077.021675 477453.4854
 0 0 -0
 0 0 -0
 0 0 -0
 0 0 0
 0 0 0
 0 0 0
 428.4071109 1743.320004 477460.6252
 166.1037053 1754.27472 477460.7484
 -166.1037064 1754.274674 477460.7484
 -428.4071078 1743.320032 477460.6252
 0 0 -0
 0 0 -0
 0 0 -0
 0 0 0
 1293.958893 1293.958756 477460.4933
 1045.711385 1351.302114 477460.9427
 612.1470006 1497.185999 477461.2602
 208.2125309 1546.330434 477461.4506
 -208.2125249 1546.330578 477461.4506
 -612.147013 1497.185884 477461.2602
 -1045.711374 1351.30217 477460.9427
 -1293.958897 1293.958736 477460.4933
 0 0 -0
 0 0 0
 1351.302267 1045.711239 477460.9427
 1097.110447 1097.110328 477461.4791