# OOMMF OVF 2.0
#
# Segment count: 1
#
# Begin: Segment
# Begin: Header
#
# Title: Oxs_MinDriver::Magnetization
# Desc: Oxs vector field output
# Desc:  MIF source file: F:/Bogdan/UNIC/2022/Master_degree/Samples/Cylinder0_5000 1.mif
# Desc:  Iteration: 1003, State id: 8855
# Desc:  Stage: 5, Stage iteration: 44
# Desc:  Stage simulation time: 0 s
# Desc:  Total simulation time: -2 s
# meshunit: m
# meshtype: rectangular
# xbase: -8.9999999999999995e-09
# ybase: -8.9999999999999995e-09
# zbase: -2.0999999999999999e-08
# xnodes: 10
# ynodes: 10
# znodes: 22
# xstepsize: 2.0000000000000001e-09
# ystepsize: 2.0000000000000001e-09
# zstepsize: 2.0000000000000001e-09
# xmin: -1e-08
# ymin: -1e-08
# zmin: -2.1999999999999998e-08
# xmax: 1e-08
# ymax: 1e-08
# zmax: 2.2000000000000005e-08
# valuedim: 3
# valuelabels: Magnetization_x Magnetization_y Magnetization_z
# valueunits: A/m A/m A/m
#
# End: Header
#
# Begin: Data Text
 0 0 0
 0 0 0
 0 0 0
 8010.188498 30094.79121 476447.2812
 3012.900221 30302.62652 476491.9145
 -3012.900264 30302.62651 476491.9145
 -8010.188541 30094.79122 476447.2812
 0 0 -0
 0 0 -0
 0 0 -0
 0 0 0
 22358.37421 22358.37445 476415.8661
 17757.15554 23299.55049 476564.4612
 10515.60306 25268.48296 476678.9246
 3553.709819 25794.02789 476753.5113
 -3553.709863 25794.02791 476753.5113
 -10515.6031 25268.48295 476678.9246
 -17757.15558 23299.5505 476564.4612
 -22358.37425 22358.37445 476415.8661
 0 0 -0
 0 0 0
 23299.55024 17757.15579 476564.4612
 18311.11607 18311.11631 476761.2372
 11343.48195 19071.86431 476948.0692
 3834.736257 19404.34298 477054.1244
 -3834.7363 19404.34297 477054.1244
 -11343.482 19071.86432 476948.0692
 -18311.11611 18311.1163 476761.2372
 -23299.55029 17757.15579 476564.4612
 0 0 -0
 30094.79097 8010.188745 476447.2812
 25268.48271 10515.6033 476678.9246
 19071.86405 11343.48221 476948.0692
 11789.96525 11789.96549 477172.7829
 3983.212627 11985.79262 477296.9161
 -3983.212672 11985.79264 477296.9161
 -11789.9653 11789.96548 477172.7829
 -19071.8641 11343.48223 476948.0692
 -25268.48276 10515.60329 476678.9246
 -30094.79101 8010.188747 476447.2812
 30302.62627 3012.900465 476491.9145
 25794.02764 3553.710076 476753.5113
 19404.34274 3834.736496 477054.1244
 11985.79235 3983.212895 477296.9161
 4048.309586 4048.309825 477429.6741
 -4048.30963 4048.309805 477429.6741
 -11985.7924 3983.212913 477296.9161
 -19404.34278 3834.736483 477054.1244
 -25794.02769 3553.710084 476753.5113
 -30302.62631 3012.900463 476491.9145
 30302.62626 -3012.900014 476491.9145
 25794.02766 -3553.709621 476753.5113
 19404.34271 -3834.736035 477054.1244
 11985.7924 -3983.212435 477296.9161
 4048.309537 -4048.309358 477429.6741
 -4048.309582 -4048.309343 477429.6741
 -11985.79244 -3983.212448 477296.9161
 -19404.34275 -3834.736025 477054.1244
 -25794.02771 -3553.709628 476753.5113
 -30302.62631 -3012.900012 476491.9145
 30094.79097 -8010.188296 476447.2812
 25268.4827 -10515.60285 476678.9246
 19071.86408 -11343.48176 476948.0692
 11789.96521 -11789.96503 477172.7829
 3983.212671 -11985.79216 477296.9161
 -3983.212715 -11985.79217 477296.9161
 -11789.96526 -11789.96502 477172.7829
 -19071.86412 -11343.48177 476948.0692
 -25268.48274 -10515.60284 476678.9246
 -30094.79101 -8010.188297 476447.2812
 0 0 0
 23299.55025 -17757.15534 476564.4612
 18311.11604 -18311.11585 476761.2373
 11343.48198 -19071.86386 476948.0692
 3834.736223 -19404.34252 477054.1244
 -3834.736267 -19404.34251 477054.1244
 -11343.48203 -19071.86386 476948.0692
 -18311.11609 -18311.11585 476761.2373
 -23299.55029 -17757.15534 476564.4612
 0 0 -0
 0 0 0
 22358.3742 -22358.374 476415.8661
 17757.15555 -23299.55004 476564.4612
 10515.60304 -25268.4825 476678.9246
 3553.709839 -25794.02745 476753.5114
 -3553.709882 -25794.02745 476753.5114
 -10515.60309 -25268.4825 476678.9246
 -17757.15559 -23299.55004 476564.4612
 -22358.37424 -22358.374 476415.8661
 0 0 -0
 0 0 0
 0 0 0
 0 0 0
 8010.188501 -30094.79077 476447.2812
 3012.900214 -30302.62606 476491.9145
 -3012.900257 -30302.62606 476491.9145
 -8010.188544 -30094.79077 476447.2812
 0 0 -0
 0 0 -0
 0 0 -0
 0 0 0
 0 0 0
 0 0 0
 6677.525407 25916.46524 476713.3507
 2570.071199 26109.79104 476742.6401
 -2570.071241 26109.79105 476742.64
 -6677.525448 25916.46524 476713.3507
 0 0 -0
 0 0 -0
 0 0 -0
 0 0 0
 19217.99718 19217.99742 476689.8451
 15475.88598 20106.70647 476789.3545
 9142.210685 22100.77981 476864.6001
 3109.562389 22707.62174 476913.5832
 -3109.562431 22707.6217 476913.5832
 -9142.210728 22100.77984 476864.6001
 -15475.88603 20106.70645 476789.3545
 -19217.99722 19217.99742 476689.8451
 0 0 -0
 0 0 0
 20106.70624 15475.88622 476789.3545
 16118.88348 16118.88374 476919.5262
 10074.76616 16958.24536 477056.3785
 3421.258643 17347.61372 477136.4863
 -3421.258686 17347.61378 477136.4863
 -10074.7662 16958.24531 477056.3785
 -16118.88353 16118.88377 476919.5262
 -20106.70628 15475.8862 476789.3545
 0 0 -0
 25916.46501 6677.525641 476713.3508
 22100.77956 9142.210943 476864.6001
 16958.24514 10074.76637 477056.3785
 10583.56926 10583.56953 477229.3447
 3590.843644 10810.77774 477328.0887
 -3590.843686 10810.77767 477328.0887
 -10583.5693 10583.56959 477229.3447
 -16958.24518 10074.76633 477056.3785
 -22100.7796 9142.210966 476864.6001
 -25916.46505 6677.525636 476713.3508
 26109.7908 2570.071446 476742.6401
 22707.62151 3109.562609 476913.5832
 17347.61345 3421.258922 477136.4863
 10810.77753 3590.843847 477328.0887
 3665.9935 3665.993792 477435.8515
 -3665.993544 3665.993855 477435.8515
 -10810.77756 3590.843792 477328.0887
 -17347.6135 3421.258964 477136.4863
 -22707.62155 3109.562584 476913.5832
 -26109.79084 2570.071454 476742.6401
 26109.79081 -2570.071008 476742.6401
 22707.62145 -3109.562164 476913.5832
 17347.61356 -3421.25848 477136.4863
 10810.77739 -3590.843392 477328.0887
 3665.993649 -3665.993348 477435.8515
 -3665.99369 -3665.993397 477435.8515
 -10810.77744 -3590.843348 477328.0887
 -17347.61359 -3421.258514 477136.4863
 -22707.62149 -3109.562143 476913.5832
 -26109.79086 -2570.071015 476742.6401
 25916.46499 -6677.525204 476713.3508
 22100.77961 -9142.210507 476864.6001
 16958.24505 -10074.76592 477056.3785
 10583.56937 -10583.5691 477229.3447
 3590.843513 -10810.77727 477328.0887
 -3590.843557 -10810.77724 477328.0887
 -10583.56941 -10583.56913 477229.3447
 -16958.24509 -10074.7659 477056.3785
 -22100.77965 -9142.21052 476864.6001
 -25916.46504 -6677.5252 476713.3508
 0 0 0
 20106.70621 -15475.88577 476789.3546
 16118.88354 -16118.88331 476919.5262
 10074.76607 -16958.2449 477056.3785
 3421.258742 -17347.61329 477136.4863
 -3421.258784 -17347.61331 477136.4863
 -10074.76611 -16958.24488 477056.3785
 -16118.88358 -16118.88332 476919.5262
 -20106.70625 -15475.88577 476789.3546
 0 0 -0
 0 0 0
 19217.99718 -19217.99698 476689.8452
 15475.88596 -20106.70603 476789.3546
 9142.210733 -22100.77938 476864.6001
 3109.562329 -22707.62128 476913.5832
 -3109.562371 -22707.62128 476913.5832
 -9142.210774 -22100.77939 476864.6001
 -15475.886 -20106.70602 476789.3546
 -19217.99723 -19217.99699 476689.8452
 0 0 -0
 0 0 0
 0 0 0
 0 0 0
 6677.525394 -25916.4648 476713.3508
 2570.071217 -26109.79061 476742.6401
 -2570.071259 -26109.79061 476742.6401
 -6677.525435 -25916.4648 476713.3508
 0 0 -0
 0 0 -0
 0 0 -0
 0 0 0
 0 0 0
 0 0 0
 5293.641988 20944.14377 476975.0428
 2050.514953 21107.64791 476992.8028
 -2050.514992 21107.64789 476992.8028
 -5293.642027 20944.14378 476975.0428
 0 0 -0
 0 0 -0
 0 0 -0
 0 0 0
 15524.29435 15524.29457 476958.975
 12571.39129 16278.37183 477020.8025
 7415.673404 18001.079 477066.9138
 2527.981433 18567.5714 477096.1391
 -2527.981473 18567.57147 477096.139
 -7415.673442 18001.07895 477066.9138
 -12571.39133 16278.37186 477020.8025
 -15524.29438 15524.29456 476958.975
 0 0 -0
 0 0 0
 16278.37159 12571.39153 477020.8025
 13181.23545 13181.23565 477099.97
 8295.014082 13978.00431 477187.2582
 2827.556441 14367.19787 477239.4156
 -2827.556479 14367.19776 477239.4156
 -8295.014125 13978.0044 477187.2582
 -13181.23548 13181.23559 477099.97
 -16278.37163 12571.39155 477020.8025
 0 0 -0
 20944.14354 5293.642221 476975.0428
 18001.07879 7415.673608 477066.9138
 13978.00405 8295.014355 477187.2582
 8801.390948 8801.391129 477301.7309
 2999.581159 9035.962318 477369.066
 -2999.5812 9035.962437 477369.066
 -8801.390982 8801.391025 477301.7309
 -13978.00409 8295.014431 477187.2582
 -18001.07882 7415.673567 477066.9138
 -20944.14358 5293.642231 476975.0428
 21107.64769 2050.51517 476992.8028
 18567.57115 2527.981698 477096.1391
 14367.19767 2827.556619 477239.4157
 9035.962031 2999.581458 477369.066
 3078.211405 3078.211571 477444.1544
 -3078.211442 3078.211457 477444.1544
 -9035.962076 2999.581559 477369.066
 -14367.1977 2827.556543 477239.4157
 -18567.5712 2527.981744 477096.1391
 -21107.64773 2050.515156 476992.8028
 21107.64766 -2050.51475 476992.8028
 18567.57126 -2527.98128 477096.1391
 14367.1975 -2827.556188 477239.4157
 9035.962251 -2999.58104 477369.066
 3078.211161 -3078.211132 477444.1544
 -3078.211203 -3078.211038 477444.1544
 -9035.962285 -2999.581123 477369.066
 -14367.19755 -2827.556124 477239.4157
 -18567.57129 -2527.981319 477096.1391
 -21107.6477 -2050.514738 476992.8028
 20944.14355 -5293.641806 476975.0429
 18001.0787 -7415.67318 477066.9138
 13978.00419 -8295.013947 477187.2583
 8801.390755 -8801.39068 477301.7309
 2999.581375 -9035.961917 477369.066
 -2999.581412 -9035.961982 477369.066
 -8801.390799 -8801.390622 477301.7309
 -13978.00422 -8295.013991 477187.2583
 -18001.07875 -7415.673154 477066.9138
 -20944.14359 -5293.641812 476975.0428
 0 0 0
 16278.37163 -12571.39111 477020.8025
 13181.23535 -13181.23521 477099.97
 8295.014224 -13978.00391 477187.2583
 2827.556276 -14367.19741 477239.4157
 -2827.556317 -14367.19737 477239.4157
 -8295.01426 -13978.00395 477187.2583
 -13181.23539 -13181.23519 477099.97
 -16278.37167 -12571.39112 477020.8025
 0 0 -0
 0 0 0
 15524.29433 -15524.29415 476958.975
 12571.39133 -16278.37142 477020.8025
 7415.673323 -18001.07856 477066.9138
 2527.981532 -18567.571 477096.1391
 -2527.981571 -18567.57102 477096.1391
 -7415.673364 -18001.07855 477066.9138
 -12571.39136 -16278.37143 477020.8025
 -15524.29436 -15524.29414 476958.975
 0 0 -0
 0 0 0
 0 0 0
 0 0 0
 5293.642005 -20944.14335 476975.0429
 2050.514921 -21107.64748 476992.8028
 -2050.51496 -21107.64748 476992.8028
 -5293.642044 -20944.14336 476975.0429
 0 0 -0
 0 0 -0
 0 0 -0
 0 0 0
 0 0 0
 0 0 0
 4078.151666 16312.92642 477167.82
 1581.941456 16440.39989 477178.2497
 -1581.941491 16440.39992 477178.2497
 -4078.1517 16312.9264 477167.82
 0 0 -0
 0 0 -0
 0 0 -0
 0 0 0
 12092.53739 12092.5376 477157.6389
 9807.823477 12686.48397 477194.6469
 5777.721564 14061.75953 477221.915
 1970.358385 14529.35463 477238.8153
 -1970.35842 14529.35453 477238.8153
 -5777.721602 14061.75961 477221.915
 -9807.823511 12686.48393 477194.6469
 -12092.53742 12092.53762 477157.6389
 0 0 -0
 0 0 0
 12686.48377 9807.823677 477194.6469
 10314.88042 10314.88066 477241.1107
 6513.805628 10985.4203 477293.1617
 2225.110428 11322.92367 477324.5349
 -2225.110466 11322.92382 477324.5349
 -6513.805658 10985.42018 477293.1617
 -10314.88046 10314.88075 477241.1107
 -12686.4838 9807.823643 477194.6469
 0 0 -0
 16312.92621 4078.151871 477167.82
 14061.7593 5777.721811 477221.915
 10985.42013 6513.805793 477293.1617
 6954.81088 6954.811162 477362.6844
 2377.476591 7165.051682 477404.316
 -2377.476624 7165.051504 477404.316
 -6954.810923 6954.811317 477362.6844
 -10985.42016 6513.80568 477293.1617
 -14061.75934 5777.721874 477221.915
 -16312.92625 4078.151856 477167.82
 16440.39967 1581.941684 477178.2497
 14529.35444 1970.358558 477238.8153
 11322.92341 2225.110713 477324.5349
 7165.051529 2377.476729 477404.316
 2449.075395 2449.075698 477451.4377
 -2449.075434 2449.075874 477451.4377
 -7165.051556 2377.476574 477404.316
 -11322.92345 2225.11083 477324.5349
 -14529.35446 1970.358488 477238.8153
 -16440.3997 1581.941707 477178.2497
 16440.39971 -1581.94129 477178.2497
 14529.35429 -1970.358157 477238.8153
 11322.92364 -2225.110321 477324.5349
 7165.051227 -2377.476315 477404.316
 2449.075729 -2449.075309 477451.4377
 -2449.075762 -2449.075457 477451.4377
 -7165.051272 -2377.476184 477404.316
 -11322.92367 -2225.110422 477324.5349
 -14529.35433 -1970.358095 477238.8153
 -16440.39974 -1581.94131 477178.2497
 16312.92618 -4078.151475 477167.82
 14061.75941 -5777.721424 477221.915
 10985.41993 -6513.805373 477293.1617
 6954.811143 -6954.810791 477362.6844
 2377.476296 -7165.051245 477404.316
 -2377.476334 -7165.051137 477404.316
 -6954.811172 -6954.810886 477362.6844
 -10985.41997 -6513.805301 477293.1617
 -14061.75944 -5777.721467 477221.915
 -16312.92622 -4078.151465 477167.82
 0 0 0
 12686.48371 -9807.823272 477194.6469
 10314.88055 -10314.88029 477241.1107
 6513.805432 -10985.41987 477293.1617
 2225.110653 -11322.92331 477324.5349
 -2225.110686 -11322.92338 477324.5349
 -6513.805472 -10985.41981 477293.1617
 -10314.88058 -10314.88033 477241.1107
 -12686.48375 -9807.823254 477194.6469
 0 0 -0
 0 0 0
 12092.5374 -12092.53721 477157.6389
 9807.823418 -12686.48356 477194.6469
 5777.721673 -14061.75916 477221.915
 1970.358249 -14529.3542 477238.8153
 -1970.358286 -14529.35416 477238.8153
 -5777.721705 -14061.75919 477221.915
 -9807.823455 -12686.48355 477194.6469
 -12092.53743 -12092.53722 477157.6389
 0 0 -0
 0 0 0
 0 0 0
 0 0 0
 4078.151637 -16312.92602 477167.82
 1581.941498 -16440.3995 477178.2497
 -1581.941532 -16440.39951 477178.2497
 -4078.151673 -16312.92601 477167.82
 0 0 -0
 0 0 -0
 0 0 -0
 0 0 0
 0 0 0
 0 0 0
 3075.341295 12383.32595 477293.4808
 1193.214239 12477.4193 477299.4464
 -1193.21427 12477.41926 477299.4464
 -3075.341327 12383.32598 477293.4808
 0 0 -0
 0 0 -0
 0 0 -0
 0 0 0
 9181.690128 9181.69032 477287.4023
 7446.488531 9628.175082 477308.8302
 4380.507792 10679.63217 477324.4472
 1493.438312 11041.01187 477333.9889
 -1493.438344 11041.012 477333.9889
 -4380.50782 10679.63207 477324.4472
 -7446.488565 9628.175132 477308.8302
 -9181.690158 9181.690304 477287.4023
 0 0 -0
 0 0 0
 9628.17487 7446.488747 477308.8302
 7837.951424 7837.95159 477335.3164
 4955.621121 8362.324247 477365.0434
 1694.28556 8630.24619 477382.9904
 -1694.285589 8630.245991 477382.9904
 -4955.621159 8362.324416 477365.0434
 -7837.951449 7837.951477 477335.3164
 -9628.174905 7446.488792 477308.8302
 0 0 -0
 12383.32575 3075.341503 477293.4808
 10679.63199 4380.507958 477324.4472
 8362.323999 4955.62138 477365.0434
 5307.50064 5307.500773 477404.9981
 1817.185352 5478.092194 477429.1148
 -1817.185388 5478.092433 477429.1148
 -5307.500662 5307.500565 477404.9981
 -8362.324042 4955.621532 477365.0434
 -10679.63202 4380.507873 477324.4472
 -12383.32578 3075.341523 477293.4808
 12477.41911 1193.214423 477299.4464
 11041.01164 1493.438561 477333.9889
 8630.246035 1694.285688 477382.9904
 5478.091919 1817.185645 477429.1148
 1875.956584 1875.956697 477456.6293
 -1875.956611 1875.956456 477456.6293
 -5478.091963 1817.185858 477429.1148
 -8630.246053 1694.285527 477382.9904
 -11041.01169 1493.438657 477333.9889
 -12477.41913 1193.214393 477299.4464
 12477.41905 -1193.214052 477299.4464
 11041.01182 -1493.438194 477333.9889
 8630.245745 -1694.285305 477382.9904
 5478.092292 -1817.185283 477429.1148
 1875.956171 -1875.956305 477456.6293
 -1875.956207 -1875.956095 477456.6293
 -5478.092312 -1817.185469 477429.1148
 -8630.245791 -1694.285163 477382.9904
 -11041.01184 -1493.43828 477333.9889
 -12477.41908 -1193.214024 477299.4464
 12383.32578 -3075.341136 477293.4808
 10679.63185 -4380.507575 477324.4472
 8362.324244 -4955.621029 477365.0434
 5307.500313 -5307.500364 477404.9981
 1817.185717 -5478.091858 477429.1148
 -1817.185745 -5478.092018 477429.1148
 -5307.500355 -5307.500224 477404.9981
 -8362.324264 -4955.621136 477365.0434
 -10679.63189 -4380.507514 477324.4472
 -12383.32581 -3075.341152 477293.4808
 0 0 0
 9628.174936 -7446.488383 477308.8302
 7837.951255 -7837.951193 477335.3165
 4955.621361 -8362.323913 477365.0434
 1694.285282 -8630.245768 477382.9904
 -1694.285316 -8630.245664 477382.9904
 -4955.621385 -8362.324003 477365.0434
 -7837.951294 -7837.95113 477335.3165
 -9628.174963 -7446.488411 477308.8302
 0 0 -0
 0 0 0
 9181.690097 -9181.689945 477287.4023
 7446.488596 -9628.174724 477308.8302
 4380.507655 -10679.63177 477324.4472
 1493.438479 -11041.01153 477333.9889
 -1493.438508 -11041.01159 477333.9889
 -4380.50769 -10679.63172 477324.4472
 -7446.488624 -9628.174748 477308.8302
 -9181.690129 -9181.689937 477287.4023
 0 0 -0
 0 0 0
 0 0 0
 0 0 0
 3075.341326 -12383.32559 477293.4808
 1193.214185 -12477.41891 477299.4464
 -1193.214217 -12477.4189 477299.4464
 -3075.341356 -12383.3256 477293.4808
 0 0 -0
 0 0 -0
 0 0 -0
 0 0 0
 0 0 0
 0 0 0
 2274.959918 9199.147619 477369.9525
 882.6019232 9266.176004 477373.261
 -882.6019505 9266.176055 477373.261
 -2274.959944 9199.147589 477369.9525
 0 0 -0
 0 0 -0
 0 0 -0
 0 0 0
 6822.55193 6822.552118 477366.5016
 5529.403859 7147.873628 477378.4713
 3248.297533 7928.68309 477387.1132
 1106.854306 8197.059479 477392.3485
 -1106.854331 8197.059324 477392.3485
 -3248.297564 7928.683212 477387.1132
 -5529.403883 7147.873569 477378.4713
 -6822.551958 6822.552139 477366.5016
 0 0 -0
 0 0 0
 7147.873458 5529.404028 477378.4713
 5818.362605 5818.362827 477393.0923
 3678.607672 6209.948399 477409.4424
 1257.809636 6411.277272 477419.2966
 -1257.809666 6411.277514 477419.2966
 -3678.607691 6209.948194 477409.4424
 -5818.362641 5818.362965 477393.0923
 -7147.87348 5529.403972 477378.4713
 0 0 -0
 9199.147438 2274.960093 477369.9525
 7928.682878 3248.297755 477387.1132
 6209.94826 3678.6078 477409.4424
 3944.111081 3944.11134 477431.4184
 1351.104339 4073.850182 477444.7084
 -1351.104361 4073.849887 477444.7084
 -3944.11112 3944.111597 477431.4184
 -6209.948273 3678.607612 477409.4424
 -7928.682916 3248.29786 477387.1132
 -9199.147462 2274.960069 477369.9525
 9266.175809 882.6021248 477373.261
 8197.059318 1106.854443 477392.3485
 6411.277035 1257.809899 477419.2966
 4073.850065 1351.104436 477444.7084
 1396.109043 1396.109324 477459.9177
 -1396.109076 1396.109626 477459.9177
 -4073.850078 1351.104169 477444.7084
 -6411.277079 1257.810102 477419.2966
 -8197.059332 1106.854322 477392.3485
 -9266.175841 882.6021631 477373.261
 9266.175874 -882.6017808 477373.261
 8197.059113 -1106.854091 477392.3485
 6411.277368 -1257.80956 477419.2966
 4073.849635 -1351.104073 477444.7084
 1396.109518 -1396.108989 477459.9177
 -1396.109539 -1396.10926 477459.9177
 -4073.849678 -1351.103834 477444.7084
 -6411.277378 -1257.809743 477419.2966
 -8197.059153 -1106.85398 477392.3485
 -9266.175896 -882.6018162 477373.261
 9199.147396 -2274.959747 477369.9525
 7928.68304 -3248.29742 477387.1132
 6209.947975 -3678.607428 477409.4424
 3944.111455 -3944.111026 477431.4184
 1351.103919 -4073.84979 477444.7084
 -1351.103951 -4073.849579 477444.7084
 -3944.11147 -3944.111212 477431.4184
 -6209.948016 -3678.607288 477409.4424
 -7928.683056 -3248.297501 477387.1132
 -9199.147426 -2274.959727 477369.9525
 0 0 0
 7147.873373 -5529.403671 477378.4713
 5818.362795 -5818.362505 477393.0923
 3678.607393 -6209.94801 477409.4424
 1257.809954 -6411.276972 477419.2966
 -1257.809978 -6411.277116 477419.2966
 -3678.607429 -6209.947887 477409.4424
 -5818.362812 -5818.362591 477393.0923
 -7147.873404 -5529.403634 477378.4713
 0 0 -0
 0 0 0
 6822.551951 -6822.551775 477366.5016
 5529.403776 -7147.873269 477378.4713
 3248.297688 -7928.68277 477387.1132
 1106.854113 -8197.059092 477392.3485
 -1106.854141 -8197.059014 477392.3485
 -3248.29771 -7928.682834 477387.1132
 -5529.403806 -7147.873236 477378.4713
 -6822.551976 -6822.551788 477366.5016
 0 0 -0
 0 0 0
 0 0 0
 0 0 0
 2274.959878 -9199.147262 477369.9525
 882.601983 -9266.175669 477373.261
 -882.6020092 -9266.175693 477373.261
 -2274.959906 -9199.147248 477369.9525
 0 0 -0
 0 0 -0
 0 0 -0
 0 0 0
 0 0 0
 0 0 0
 1646.034763 6674.339764 477414.5107
 638.497089 6720.807679 477416.2695
 -638.4971106 6720.807623 477416.2695
 -1646.034786 6674.339798 477414.5107
 0 0 -0
 0 0 -0
 0 0 -0
 0 0 0
 4951.285002 4951.285166 477412.6526
 4009.357902 5182.156342 477419.0419
 2352.443567 5746.761801 477423.6191
 801.1340379 5939.94244 477426.3782
 -801.1340623 5939.942613 477426.3782
 -2352.443585 5746.761664 477423.6191
 -4009.357929 5182.156409 477419.0419
 -4951.285022 4951.285143 477412.6526
 0 0 -0
 0 0 0
 5182.156157 4009.35809 477419.0419
 4215.653175 4215.653311 477426.7775
 2663.722647 4498.019102 477435.3817
 910.5444859 4643.417853 477440.5522
 -910.5445042 4643.41758 477440.5522
 -2663.722679 4498.019334 477435.3817
 -4215.653187 4215.653155 477426.7775
 -5182.156185 4009.358153 477419.0419
 0 0 -0
 6674.339586 1646.034942 477414.5107
 5746.761653 2352.443704 477423.6191
 4498.018882 2663.722877 477435.3817
 2856.037968 2856.038071 477446.9158
 978.3197073 2950.244853 477453.8828
 -978.3197356 2950.245189 477453.8828
 -2856.037975 2856.037778 477446.9158
 -4498.018922 2663.723093 477435.3817
 -5746.761663 2352.443583 477423.6191
 -6674.339611 1646.034971 477414.5107
 6720.807514 638.4972449 477416.2695
 5939.94224 801.1342575 477426.3782
 4643.417728 910.5445857 477440.5522
 2950.244609 978.3199683 477453.8828
 1011.115421 1011.115508 477461.8588
 -1011.115437 1011.115157 477461.8588
 -2950.244649 978.3202783 477453.8828
 -4643.417729 910.5443502 477440.5522
 -5939.942278 801.1343992 477426.3782
 -6720.80753 638.4972005 477416.2695
 6720.807441 -638.4969217 477416.2695
 5939.942463 -801.1339395 477426.3782
 4643.417364 -910.5442521 477440.5522
 2950.245075 -978.3196562 477453.8828
 1011.114907 -1011.115167 477461.8588
 -1011.114937 -1011.114847 477461.8588
 -2950.24508 -978.3199398 477453.8828
 -4643.417408 -910.5440354 477440.5522
 -5939.942468 -801.1340711 477426.3782
 -6720.807469 -638.49688 477416.2695
 6674.339627 -1646.034623 477414.5107
 5746.761473 -2352.443369 477423.6191
 4498.01919 -2663.722576 477435.3817
 2856.037559 -2856.037713 477446.9158
 978.3201612 -2950.244567 477453.8828
 -978.3201776 -2950.244824 477453.8828
 -2856.037597 -2856.037487 477446.9158
 -4498.019194 -2663.722745 477435.3817
 -5746.761509 -2352.443272 477423.6191
 -6674.339645 -1646.034647 477414.5107
 0 0 0
 5182.156241 -4009.357774 477419.0419
 4215.652963 -4215.652962 477426.7775
 2663.722947 -4498.018816 477435.3817
 910.5441399 -4643.417481 477440.5522
 -910.5441665 -4643.417302 477440.5522
 -2663.722958 -4498.01897 477435.3817
 -4215.652997 -4215.652856 477426.7775
 -5182.156257 -4009.35782 477419.0419
 0 0 -0
 0 0 0
 4951.284964 -4951.284838 477412.6526
 4009.357984 -5182.156031 477419.0419
 2352.443396 -5746.761448 477423.6191
 801.1342455 -5939.942151 477426.3782
 -801.1342654 -5939.942252 477426.3782
 -2352.443424 -5746.761367 477423.6191
 -4009.358002 -5182.156073 477419.0419
 -4951.284989 -4951.284824 477412.6526
 0 0 -0
 0 0 0
 0 0 0
 0 0 0
 1646.034801 -6674.339445 477414.5107
 638.4970223 -6720.807341 477416.2695
 -638.4970451 -6720.80731 477416.2695
 -1646.034822 -6674.339465 477414.5107
 0 0 -0
 0 0 -0
 0 0 -0
 0 0 0
 0 0 0
 0 0 0
 1151.818005 4678.770717 477439.6859
 446.7103891 4709.990135 477440.5594
 -446.7104071 4709.990194 477440.5594
 -1151.818021 4678.770682 477439.6859
 0 0 -0
 0 0 -0
 0 0 -0
 0 0 0
 3471.677004 3471.677165 477438.7565
 2808.904714 3630.176944 477441.937
 1646.415879 4024.320898 477444.2014
 560.4017069 4158.382918 477445.5624
 -560.4017218 4158.382737 477445.5624
 -1646.415902 4024.321041 477444.2014
 -2808.904727 3630.176874 477441.937
 -3471.677023 3471.67719 477438.7565
 0 0 -0
 0 0 0
 3630.1768 2808.904856 477441.937
 2950.871169 2950.871362 477445.7624
 1863.131683 3146.793784 477449.995
 636.6174727 3247.607056 477452.5307
 -636.6174948 3247.607344 477452.5307
 -1863.131689 3146.79354 477449.995
 -2950.871199 2950.871527 477445.7624
 -3630.176811 2808.904789 477441.937
 0 0 -0
 4678.770563 1151.818154 477439.6859
 4024.320715 1646.416071 477444.2014
 3146.79367 1863.131787 477449.995
 1996.750495 1996.750721 477455.6495
 683.7630557 2062.182629 477459.0571
 -683.7630665 2062.182271 477459.0571
 -1996.75053 1996.751033 477455.6495
 -3146.793668 1863.131557 477449.995
 -4024.320746 1646.4162 477444.2014
 -4678.770577 1151.818123 477439.6859
 4709.989967 446.7105621 477440.5594
 4158.382784 560.4018215 477445.5624
 3247.606849 636.6177007 477452.5307
 2062.182534 683.7631352 477459.0571
 706.5741393 706.5743797 477462.9544
 -706.5741648 706.5747588 477462.9544
 -2062.182531 683.7628004 477459.0571
 -3247.606891 636.6179552 477452.5307
 -4158.382783 560.4016684 477445.5624
 -4709.989991 446.7106104 477440.5594
 4709.990039 -446.7102628 477440.5594
 4158.382553 -560.4015158 477445.5624
 3247.607223 -636.6174064 477452.5307
 2062.182054 -683.7628205 477459.0571
 706.5746659 -706.5740894 477462.9544
 -706.5746754 -706.5744416 477462.9544
 -2062.182093 -683.7625087 477459.0571
 -3247.607216 -636.6176445 477452.5307
 -4158.38259 -560.4013715 477445.5624
 -4709.99005 -446.7103087 477440.5594
 4678.770516 -1151.817852 477439.6859
 4024.320895 -1646.41578 477444.2014
 3146.79335 -1863.131465 477449.995
 1996.750913 -1996.750447 477455.6495
 683.7625901 -2062.182291 477459.0571
 -683.7626146 -2062.182002 477459.0571
 -1996.750913 -1996.750701 477455.6495
 -3146.793388 -1863.131275 477449.995
 -4024.320898 -1646.415888 477444.2014
 -4678.770537 -1151.817826 477439.6859
 0 0 0
 3630.176706 -2808.904546 477441.937
 2950.871381 -2950.871081 477445.7624
 1863.131372 -3146.793447 477449.995
 636.6178261 -3247.606794 477452.5307
 -636.6178387 -3247.606999 477452.5307
 -1863.131402 -3146.79327 477449.995
 -2950.871386 -2950.871203 477445.7624
 -3630.17673 -2808.904495 477441.937
 0 0 -0
 0 0 0
 3471.677028 -3471.676866 477438.7565
 2808.904621 -3630.176631 477441.937
 1646.416051 -4024.320619 477444.2014
 560.4014929 -4158.382583 477445.5624
 -560.401513 -4158.382465 477445.5624
 -1646.416062 -4024.320714 477444.2014
 -2808.904644 -3630.176583 477441.937
 -3471.677043 -3471.676884 477438.7565
 0 0 -0
 0 0 0
 0 0 0
 0 0 0
 1151.817961 -4678.770406 477439.6859
 446.7104555 -4709.989842 477440.5594
 -446.7104721 -4709.989878 477440.5594
 -1151.817979 -4678.770384 477439.6859
 0 0 -0
 0 0 -0
 0 0 -0
 0 0 0
 0 0 0
 0 0 0
 756.6461672 3077.021658 477453.4854
 293.4044993 3096.844217 477453.8666
 -293.404511 3096.84416 477453.8666
 -756.6461809 3077.021692 477453.4854
 0 0 -0
 0 0 -0
 0 0 -0
 0 0 0
 2283.587509 2283.587649 477453.0781
 1846.367785 2386.042254 477454.468
 1081.398449 2644.263632 477455.4532
 367.9276898 2731.610682 477456.0443
 -367.9277051 2731.610858 477456.0443
 -1081.398455 2644.263493 477455.4532
 -1846.367803 2386.042323 477454.468
 -2283.58752 2283.587626 477453.0781
 0 0 -0
 0 0 0
 2386.042095 1846.367946 477454.468
 1938.199984 1938.200097 477456.1321
 1222.885869 2065.736752 477457.9652
 417.687171 2131.265827 477459.0606
 -417.6871784 2131.265544 477459.0606
 -1222.885894 2065.736992 477457.9652
 -1938.199983 1938.199935 477456.1321
 -2386.042115 1846.368013 477454.468
 0 0 -0
 3077.021504 756.6463204 477453.4854
 2644.263509 1081.398565 477455.4532
 2065.736561 1222.886067 477457.9652
 1309.857805 1309.857892 477460.4066
 448.3807233 1352.385082 477461.8742
 -448.3807433 1352.385438 477461.8742
 -1309.857799 1309.857581 477460.4066
 -2065.736595 1222.886296 477457.9652
 -2644.263506 1081.398436 477455.4532
 -3077.021521 756.6463512 477453.4854
 3096.844076 293.4046326 477453.8666
 2731.610507 367.9278771 477456.0443
 2131.265723 417.6872572 477459.0606
 1352.384874 448.3809432 477461.8742
 463.2138699 463.2139488 477463.5506
 -463.2138737 463.2135658 477463.5506
 -1352.384909 448.3812814 477461.8742
 -2131.265709 417.687 477459.0606
 -2731.61054 367.928032 477456.0443
 -3096.844082 293.4045838 477453.8666
 3096.844003 -293.4043501 477453.8666
 2731.610732 -367.927598 477456.0443
 2131.265358 -417.6869677 477459.0606
 1352.385339 -448.380668 477461.8742
 463.2133599 -463.2136541 477463.5506
 -463.2133814 -463.2132918 477463.5506
 -1352.385329 -448.3809886 477461.8742
 -2131.265397 -417.686723 477459.0606
 -2731.610723 -367.9277462 477456.0443
 -3096.844023 -293.4043032 477453.8666
 3077.021546 -756.6460412 477453.4854
 2644.263328 -1081.398274 477455.4532
 2065.736869 -1222.885799 477457.9652
 1309.857397 -1309.857585 477460.4066
 448.3811734 -1352.384824 477461.8742
 -448.3811784 -1352.385127 477461.8742
 -1309.857429 -1309.857319 477460.4066
 -2065.736859 -1222.885997 477457.9652
 -2644.263357 -1081.398162 477455.4532
 -3077.021554 -756.6460688 477453.4854
 0 0 0
 2386.042179 -1846.367668 477454.468
 1938.199771 -1938.199797 477456.1321
 1222.886168 -2065.736494 477457.9652
 417.686828 -2131.265511 477459.0606
 -417.6868459 -2131.265291 477459.0606
 -1222.886167 -2065.736682 477457.9652
 -1938.199798 -1938.199668 477456.1321
 -2386.042184 -1846.367723 477454.468
 0 0 -0
 0 0 0
 2283.587472 -2283.587363 477453.0781
 1846.367867 -2386.041979 477454.468
 1081.398279 -2644.263329 477455.4532
 367.9278955 -2731.610421 477456.0443
 -367.9279051 -2731.610549 477456.0443
 -1081.398298 -2644.263227 477455.4532
 -1846.367874 -2386.042031 477454.468
 -2283.587487 -2283.587345 477453.0781
 0 0 -0
 0 0 0
 0 0 0
 0 0 0
 756.6462053 -3077.021377 477453.4854
 293.4044333 -3096.843923 477453.8666
 -293.4044465 -3096.843883 477453.8666
 -756.6462163 -3077.021401 477453.4854
 0 0 -0
 0 0 -0
 0 0 -0
 0 0 0
 0 0 0
 0 0 0
 428.4071493 1743.320334 477460.6252
 166.1036331 1754.274959 477460.7484
 -166.1036415 1754.27501 477460.7484
 -428.4071554 1743.320303 477460.6252
 0 0 -0
 0 0 -0
 0 0 -0
 0 0 0
 1293.958881 1293.95902 477460.4933
 1045.711466 1351.302461 477460.9427
 612.1468307 1497.186144 477461.2602
 208.2127365 1546.330867 477461.4506
 -208.2127411 1546.330707 477461.4506
 -612.1468451 1497.186271 477461.2602
 -1045.711469 1351.302398 477460.9427
 -1293.95889 1293.959041 477460.4933
 0 0 -0
 0 0 0
 1351.302338 1045.711588 477460.9427
 1097.110269 1097.110436 477461.4791