# OOMMF OVF 2.0
#
# Segment count: 1
#
# Begin: Segment
# Begin: Header
#
# Title: Oxs_MinDriver::Magnetization
# Desc: Oxs vector field output
# Desc:  MIF source file: F:/Bogdan/UNIC/2022/Master_degree/Samples/Cylinder0_5000 1.mif
# Desc:  Iteration: 534, State id: 1176
# Desc:  Stage: 0, Stage iteration: 534
# Desc:  Stage simulation time: -1 s
# Desc:  Total simulation time: -2 s
# meshunit: m
# meshtype: rectangular
# xbase: -8.9999999999999995e-09
# ybase: -8.9999999999999995e-09
# zbase: -2.0999999999999999e-08
# xnodes: 10
# ynodes: 10
# znodes: 22
# xstepsize: 2.0000000000000001e-09
# ystepsize: 2.0000000000000001e-09
# zstepsize: 2.0000000000000001e-09
# xmin: -1e-08
# ymin: -1e-08
# zmin: -2.1999999999999998e-08
# xmax: 1e-08
# ymax: 1e-08
# zmax: 2.2000000000000005e-08
# valuedim: 3
# valuelabels: Magnetization_x Magnetization_y Magnetization_z
# valueunits: A/m A/m A/m
#
# End: Header
#
# Begin: Data Text
 0 0 0
 0 0 0
 0 0 0
 -2405.17435 -475274.3995 -45610.65247
 -917.8373401 -475235.3573 -46069.33954
 917.7970624 -475235.3574 -46069.33966
 2405.133542 -475274.3999 -45610.65031
 0 0 -0
 0 0 -0
 0 0 -0
 0 0 0
 -7118.93586 -476209.7323 -33844.98294
 -4022.525794 -476131.9551 -35412.59607
 -1784.304604 -475907.6653 -38478.32695
 -616.7099256 -475836.4971 -39384.24822
 616.6683162 -475836.4973 -39384.24663
 1784.261808 -475907.6659 -38478.32187
 4022.482102 -476131.9562 -35412.58534
 7118.890252 -476209.734 -33844.96924
 0 0 -0
 0 0 0
 -3977.24712 -476688.9472 -26901.68141
 -2767.514517 -476639.9024 -27903.68464
 -1403.068472 -476568.4692 -29195.83673
 -440.0226831 -476533.5317 -29790.44903
 439.978621 -476533.5317 -29790.44886
 1403.023848 -476568.4697 -29195.83075
 2767.468337 -476639.9032 -27903.67471
 3977.200189 -476688.9483 -26901.66786
 0 0 -0
 -2410.98681 -477313.1299 -11757.31643
 -1761.743125 -477197.381 -15856.45327
 -1390.477809 -477148.1092 -17309.52822
 -808.3518574 -477119.5947 -18113.8125
 -260.334285 -477106.2682 -18477.3468
 260.289323 -477106.2683 -18477.34493
 808.3064472 -477119.595 -18113.8065
 1390.432222 -477148.1097 -17309.51833
 1761.697193 -477197.3816 -15856.44182
 2410.942657 -477313.1304 -11757.30477
 -920.3869857 -477442.4049 -4446.818376
 -612.1541373 -477433.5947 -5353.43049
 -435.1792458 -477427.8885 -5856.0431
 -258.9869299 -477424.5677 -6130.776696
 -84.92698847 -477423.029 -6254.232921
 84.88240967 -477423.0291 -6254.231164
 258.9424725 -477424.5677 -6130.77106
 435.1355802 -477427.8886 -5856.034423
 612.1105201 -477433.5949 -5353.419583
 920.3444165 -477442.4051 -4446.806856
 920.350966 -477442.405 4446.810907
 612.1170027 -477433.5948 5353.423446
 435.1406577 -477427.8886 5856.037918
 258.9459768 -477424.5677 6130.774332
 84.88418025 -477423.029 6254.234051
 -84.92688779 -477423.029 6254.235722
 -258.9882096 -477424.5676 6130.779419
 -435.1815132 -477427.8884 5856.046233
 -612.1564504 -477433.5946 5353.434666
 -920.3902979 -477442.4048 4446.823677
 2410.951539 -477313.1303 11757.30801
 1761.70617 -477197.3814 15856.44607
 1390.439409 -477148.1095 17309.52232
 808.3114778 -477119.5949 18113.80964
 260.2928005 -477106.2682 18477.34815
 -260.3324197 -477106.2682 18477.34862
 -808.3515544 -477119.5946 18113.81446
 -1390.477636 -477148.1091 17309.52992
 -1761.742651 -477197.3809 15856.45584
 -2410.98768 -477313.1297 11757.32206
 0 0 0
 3977.209659 -476688.948 26901.67255
 2767.476028 -476639.903 27903.67851
 1403.029297 -476568.4694 29195.83427
 439.9826726 -476533.5316 29790.45093
 -440.0201782 -476533.5316 29790.45071
 -1403.067521 -476568.4692 29195.8369
 -2767.513772 -476639.9024 27903.68488
 -3977.245539 -476688.9472 26901.681
 0 0 -0
 0 0 0
 7118.898353 -476209.7335 33844.97411
 4022.488171 -476131.9559 35412.58948
 1784.266171 -475907.6657 38478.32462
 616.6709268 -475836.4971 39384.24875
 -616.7086325 -475836.4971 39384.24799
 -1784.304473 -475907.6654 38478.32638
 -4022.526248 -476131.9552 35412.59448
 -7118.935424 -476209.7325 33844.98085
 0 0 -0
 0 0 0
 0 0 0
 0 0 0
 2405.136207 -475274.3998 45610.65142
 917.7982302 -475235.3573 46069.34063
 -917.8375188 -475235.3573 46069.33912
 -2405.175013 -475274.3995 45610.65211
 0 0 -0
 0 0 -0
 0 0 -0
 0 0 0
 0 0 0
 0 0 0
 -2465.351297 -475632.7623 -41704.54178
 -944.8166876 -475594.7088 -42197.7675
 944.7740407 -475594.7089 -42197.76704
 2465.30851 -475632.7627 -41704.53912
 0 0 -0
 0 0 -0
 0 0 -0
 0 0 0
 -7503.842294 -476405.9029 -30870.36322
 -4071.220136 -476341.3344 -32468.90219
 -1700.633412 -476130.0003 -35625.86094
 -590.122653 -476055.1388 -36647.34443
 590.0799202 -476055.139 -36647.34329
 1700.591286 -476130.0007 -35625.85719
 4071.17737 -476341.3353 -32468.89424
 7503.799096 -476405.9043 -30870.35271
 0 0 -0
 0 0 0
 -4004.80896 -476803.0754 -24792.33912
 -2728.205761 -476750.8396 -25943.49794
 -1328.740564 -476678.1485 -27350.47473
 -409.9613736 -476641.0341 -28018.34901
 409.919294 -476641.0342 -28018.3471
 1328.69898 -476678.1489 -27350.47016
 2728.164192 -476750.8403 -25943.49045
 4004.766034 -476803.0763 -24792.32871
 0 0 -0
 -2497.905512 -477342.6156 -10471.8221
 -1679.225802 -477237.913 -14595.4068
 -1314.811475 -477187.5527 -16192.03742
 -753.3294177 -477157.8548 -17078.79902
 -240.1142051 -477143.7757 -17482.30277
 240.0731052 -477143.7758 -17482.30149
 753.2882087 -477157.8551 -17078.79397
 1314.769397 -477187.5531 -16192.03024
 1679.183235 -477237.9135 -14595.39658
 2497.863417 -477342.6161 -10471.8125
 -949.9515223 -477446.0788 -4026.254552
 -585.8174861 -477437.9843 -4949.675128
 -404.4970505 -477432.2112 -5494.673229
 -238.5320087 -477428.7499 -5796.8208
 -77.78125924 -477427.1296 -5933.059057
 77.74109872 -477427.1296 -5933.057108
 238.4915194 -477428.75 -5796.815576
 404.4564305 -477432.2113 -5494.664922
 585.7776332 -477437.9844 -4949.66432
 949.9122926 -477446.079 -4026.243051
 949.919565 -477446.0789 4026.245935
 585.7837922 -477437.9844 4949.667058
 404.461541 -477432.2112 5494.667476
 238.4947692 -477428.75 5796.817641
 77.74259267 -477427.1296 5933.059085
 -77.78138987 -477427.1296 5933.061184
 -238.5338057 -477428.7499 5796.822808
 -404.4995944 -477432.2111 5494.675596
 -585.8210332 -477437.9842 4949.6786
 -949.9551771 -477446.0788 4026.25916
 2497.872642 -477342.616 10471.81434
 1679.191787 -477237.9134 14595.39895
 1314.776099 -477187.553 16192.03229
 753.2928514 -477157.855 17078.7962
 240.076198 -477143.7757 17482.30358
 -240.1128807 -477143.7757 17482.30461
 -753.3294128 -477157.8548 17078.80078
 -1314.812205 -477187.5527 16192.03968
 -1679.226446 -477237.9129 14595.40977
 -2497.907157 -477342.6155 10471.82736
 0 0 0
 4004.774921 -476803.0761 24792.33139
 2728.171092 -476750.8401 25943.49255
 1328.704714 -476678.1488 27350.47236
 409.9234517 -476641.0341 28018.3493
 -409.9587402 -476641.034 28018.35029
 -1328.739648 -476678.1485 27350.47587
 -2728.205794 -476750.8396 25943.49909
 -4004.808513 -476803.0754 24792.33998
 0 0 -0
 0 0 0
 7503.807417 -476405.904 30870.35544
 4071.184396 -476341.3351 32468.8966
 1700.596637 -476130.0006 35625.85909
 590.0842566 -476055.1388 36647.34512
 -590.1198807 -476055.1388 36647.34533
 -1700.632141 -476130.0002 35625.86157
 -4071.219928 -476341.3344 32468.90247
 -7503.841966 -476405.9029 30870.36288
 0 0 -0
 0 0 0
 0 0 0
 0 0 0
 2465.31426 -475632.7626 41704.54016
 944.7781599 -475594.7088 42197.76805
 -944.8136874 -475594.7087 42197.76865
 -2465.348822 -475632.7622 41704.5429
 0 0 -0
 0 0 -0
 0 0 -0
 0 0 0
 0 0 0
 0 0 0
 -2608.512072 -476062.8294 -36458.87356
 -998.3452219 -476031.9576 -36938.46103
 998.3060121 -476031.9577 -36938.46094
 2608.473217 -476062.8298 -36458.87001
 0 0 -0
 0 0 -0
 0 0 -0
 0 0 0
 -7951.380587 -476636.7463 -26945.48056
 -4305.177832 -476595.6901 -28458.47702
 -1782.678276 -476427.7301 -31389.66991
 -611.6724963 -476362.7505 -32404.12213
 611.6341089 -476362.7506 -32404.12055
 1782.639853 -476427.7304 -31389.66696
 4305.138785 -476595.6907 -28458.47221
 7951.341331 -476636.7473 -26945.47477
 0 0 -0
 0 0 0
 -4230.108656 -476949.2446 -21757.65411
 -2841.785599 -476904.772 -22926.70944
 -1357.334323 -476841.4679 -24336.05257
 -412.9723646 -476807.3355 -25029.29385
 412.9363413 -476807.3356 -25029.29272
 1357.297791 -476841.4682 -24336.04855
 2841.748344 -476904.7725 -22926.70391
 4230.07095 -476949.2453 -21757.64688
 0 0 -0
 -2655.806097 -477371.5581 -9011.855653
 -1762.750697 -477288.9699 -12806.37558
 -1342.930095 -477245.2661 -14388.32199
 -753.0708397 -477218.1514 -15301.63857
 -236.8349006 -477204.844 -15727.43093
 236.8006744 -477204.8441 -15727.42941
 753.0359704 -477218.1516 -15301.63397
 1342.894165 -477245.2664 -14388.31617
 1762.715215 -477288.9702 -12806.36682
 2655.7709 -477371.5584 -9011.845555
 -1007.082099 -477450.2449 -3481.478454
 -608.2123592 -477443.7843 -4351.341317
 -407.3170858 -477438.7123 -4897.074866
 -235.1350783 -477435.502 -5211.278874
 -75.76774833 -477433.9539 -5355.85621
 75.73418833 -477433.9539 -5355.854716
 235.1009141 -477435.5021 -5211.274051
 407.2822789 -477438.7125 -4897.06648
 608.1785943 -477443.7845 -4351.33092
 1007.049867 -477450.2451 -3481.466587
 1007.056505 -477450.2451 3481.468257
 608.1848265 -477443.7845 4351.331894
 407.2868313 -477438.7124 4897.067666
 235.1039352 -477435.5021 5211.274504
 75.73532606 -477433.9539 5355.85601
 -75.76840731 -477433.9539 5355.857239
 -235.1372176 -477435.502 5211.280588
 -407.320773 -477438.7123 4897.076282
 -608.2166062 -477443.7843 4351.343885
 -1007.087414 -477450.2449 3481.481348
 2655.779095 -477371.5584 9011.845878
 1762.722825 -477288.9702 12806.36756
 1342.900237 -477245.2664 14388.31613
 753.0398816 -477218.1516 15301.6353
 236.802405 -477204.844 15727.43079
 -236.8349525 -477204.8439 15727.43243
 -753.0720383 -477218.1514 15301.63997
 -1342.931768 -477245.266 14388.32469
 -1762.753325 -477288.9698 12806.37823
 -2655.809804 -477371.558 9011.859736
 0 0 0
 4230.079503 -476949.2452 21757.64705
 2841.7554 -476904.7724 22926.70408
 1357.302696 -476841.4681 24336.04984
 412.9390737 -476807.3355 25029.29448
 -412.9713624 -476807.3354 25029.29553
 -1357.334123 -476841.4678 24336.0544
 -2841.786182 -476904.7719 22926.71185
 -4230.109119 -476949.2445 21757.65648
 0 0 -0
 0 0 0
 7951.350586 -476636.7471 26945.47466
 4305.146656 -476595.6907 28458.47233
 1782.645995 -476427.7303 31389.66796
 611.6382252 -476362.7504 32404.12288
 -611.669914 -476362.7503 32404.124
 -1782.676572 -476427.7299 31389.67255
 -4305.177125 -476595.69 28458.4795
 -7951.379991 -476636.7462 26945.48288
 0 0 -0
 0 0 0
 0 0 0
 0 0 0
 2608.47921 -476062.8297 36458.8719
 998.3108538 -476031.9576 36938.46268
 -998.3416922 -476031.9574 36938.4642
 -2608.509295 -476062.8292 36458.87631
 0 0 -0
 0 0 -0
 0 0 -0
 0 0 0
 0 0 0
 0 0 0
 -2785.13215 -476452.3925 -30939.16693
 -1065.11667 -476431.2389 -31368.95689
 1065.081158 -476431.239 -31368.95582
 2785.097612 -476452.3929 -30939.16335
 0 0 -0
 0 0 -0
 0 0 -0
 0 0 0
 -8400.536883 -476843.1538 -22845.32754
 -4618.382589 -476828.6247 -24186.86618
 -1949.154611 -476710.2164 -26747.74174
 -664.7172152 -476661.31 -27666.31434
 664.683522 -476661.3101 -27666.31381
 1949.120696 -476710.2168 -26747.73738
 4618.34859 -476828.6252 -24186.86268
 8400.503395 -476843.1546 -22845.32249
 0 0 -0
 0 0 0
 -4538.859614 -477084.098 -18494.14639
 -3055.276831 -477053.0437 -19568.60035
 -1468.316691 -477005.7077 -20863.12975
 -446.4281252 -476978.7833 -21515.39696
 446.3973625 -476978.7834 -21515.39496
 1468.285683 -477005.7079 -20863.12589
 3055.244695 -477053.0441 -19568.59502
 4538.828744 -477084.0986 -18494.13971
 0 0 -0
 -2840.626962 -477395.3647 -7580.760142
 -1930.191178 -477336.0014 -10885.19333
 -1453.751466 -477302.7072 -12324.10605
 -809.8193974 -477281.2857 -13182.93561
 -253.6128628 -477270.4182 -13592.45606
 253.5851078 -477270.4183 -13592.4554
 809.7903427 -477281.2859 -13182.93157
 1453.723356 -477302.7075 -12324.09853
 1930.163193 -477336.0017 -10885.18476
 2840.600531 -477395.365 -7580.748756
 -1076.335224 -477453.7822 -2932.340105
 -661.9063046 -477449.1944 -3701.348241
 -440.7334267 -477445.2972 -4203.007947
 -251.8620732 -477442.7119 -4501.629681
 -80.6591019 -477441.4272 -4642.025332
 80.63189022 -477441.4272 -4642.024147
 251.8347428 -477442.712 -4501.623362
 440.7059848 -477445.2973 -4202.99915
 661.8804022 -477449.1945 -3701.336314
 1076.309862 -477453.7824 -2932.327988
 1076.316009 -477453.7824 2932.328344
 661.8860437 -477449.1945 3701.337217
 440.7108131 -477445.2973 4202.999201
 251.8376798 -477442.712 4501.624205
 80.63320661 -477441.4272 4642.025178
 -80.65971544 -477441.4272 4642.026164
 -251.8647242 -477442.7119 4501.630392
 -440.7369889 -477445.2971 4203.009056
 -661.9114179 -477449.1944 3701.348535
 -1076.340925 -477453.7822 2932.341376
 2840.607631 -477395.365 7580.748729
 1930.169763 -477336.0017 10885.1842
 1453.728761 -477302.7075 12324.09865
 809.794453 -477281.2859 13182.93236
 253.5868057 -477270.4182 13592.45651
 -253.6130437 -477270.4182 13592.45772
 -809.8204308 -477281.2857 13182.93699
 -1453.754506 -477302.7072 12324.10765
 -1930.19502 -477336.0013 10885.19551
 -2840.6319 -477395.3646 7580.761796
 0 0 0
 4538.83661 -477084.0985 18494.13917
 3055.252104 -477053.044 19568.59471
 1468.29076 -477005.7079 20863.12695
 446.4005484 -476978.7833 21515.39754
 -446.4264812 -476978.7832 21515.39826
 -1468.316562 -477005.7076 20863.13192
 -3055.276981 -477053.0435 19568.60299
 -4538.861174 -477084.0979 18494.14875
 0 0 -0
 0 0 0
 8400.512489 -476843.1545 22845.32134
 4618.35697 -476828.6252 24186.86204
 1949.127192 -476710.2166 26747.73923
 664.6883366 -476661.31 27666.31552
 -664.71385 -476661.3099 27666.31784
 -1949.152271 -476710.2163 26747.74424
 -4618.381385 -476828.6246 24186.86955
 -8400.536627 -476843.1536 22845.33069
 0 0 -0
 0 0 0
 0 0 0
 0 0 0
 2785.103804 -476452.3927 30939.16579
 1065.087081 -476431.2388 31368.9588
 -1065.111911 -476431.2386 31368.9604
 -2785.128598 -476452.3922 30939.17055
 0 0 -0
 0 0 -0
 0 0 -0
 0 0 0
 0 0 0
 0 0 0
 -2958.610794 -476767.2047 -25615.4344
 -1131.671867 -476755.2748 -25980.7348
 1131.643546 -476755.2749 -25980.73435
 2958.58404 -476767.205 -25615.43043
 0 0 -0
 0 0 -0
 0 0 -0
 0 0 0
 -8812.02659 -477008.2107 -18904.66739
 -4934.754862 -477017.7081 -20040.60065
 -2134.214726 -476943.2213 -22191.8919
 -726.7883643 -476910.2352 -22977.61124
 726.7615713 -476910.2354 -22977.60922
 2134.188105 -476943.2216 -22191.88769
 4934.727725 -477017.7086 -20040.59561
 8812.000325 -477008.2114 -18904.66133
 0 0 -0
 0 0 0
 -4852.134267 -477193.3969 -15322.85996
 -3295.540357 -477176.026 -16249.64236
 -1610.238451 -477145.2809 -17368.34322
 -492.882885 -477126.5926 -17939.98271
 492.8574053 -477126.5927 -17939.98198
 1610.212603 -477145.2812 -17368.33859
 3295.515516 -477176.0264 -16249.63632
 4852.109951 -477193.3974 -15322.85312
 0 0 -0
 -3019.337158 -477413.6139 -6244.689414
 -2115.799386 -477374.1446 -9017.804366
 -1595.569722 -477351.2077 -10254.26496
 -893.6812136 -477336.2523 -11007.9449
 -280.9259511 -477328.452 -11372.83051
 280.9019537 -477328.4521 -11372.82844
 893.6580814 -477336.2525 -11007.94057
 1595.546413 -477351.2079 -10254.25836
 2115.777679 -477374.1449 -9017.794005
 3019.315969 -477413.6142 -6244.679106
 -1144.538025 -477456.5127 -2416.575905
 -724.4075064 -477453.5979 -3067.315507
 -487.1744571 -477450.9133 -3501.328912
 -279.1470401 -477449.0706 -3765.410013
 -89.52226475 -477448.1327 -3891.508483
 89.50096476 -477448.1327 -3891.506923
 279.1253466 -477449.0707 -3765.40353
 487.1539239 -477450.9134 -3501.319704
 724.3876206 -477453.598 -3067.305009
 1144.518074 -477456.5128 -2416.562839
 1144.524124 -477456.5128 2416.562285
 724.3929085 -477453.598 3067.304119
 487.158715 -477450.9134 3501.319925
 279.1290549 -477449.0707 3765.403977
 89.50264782 -477448.1327 3891.507507
 -89.52235674 -477448.1327 3891.509444
 -279.148656 -477449.0706 3765.410403
 -487.1779222 -477450.9133 3501.32858
 -724.4121536 -477453.5978 3067.31566
 -1144.542853 -477456.5127 2416.57531
 3019.322756 -477413.6142 6244.677436
 2115.784512 -477374.1448 9017.793643
 1595.552627 -477351.2079 10254.25758
 893.6629291 -477336.2524 11007.94122
 280.9052433 -477328.452 11372.83008
 -280.9242297 -477328.452 11372.83121
 -893.6816267 -477336.2523 11007.94581
 -1595.571112 -477351.2077 10254.26627
 -2115.802404 -477374.1445 9017.804326
 -3019.34118 -477413.6139 6244.690093
 0 0 0
 4852.118117 -477193.3973 15322.85195
 3295.523048 -477176.0264 16249.63599
 1610.218722 -477145.2811 17368.33991
 492.861349 -477126.5926 17939.98332
 -492.8805702 -477126.5925 17939.98486
 -1610.236599 -477145.2809 17368.34446
 -3295.540041 -477176.026 16249.64403
 -4852.134675 -477193.3969 15322.86158
 0 0 -0
 0 0 0
 8812.009885 -477008.2112 18904.66024
 4934.736627 -477017.7085 20040.59541
 2134.19428 -476943.2215 22191.88957
 726.7665846 -476910.2352 22977.61192
 -726.7845202 -476910.2351 22977.6133
 -2134.21198 -476943.2212 22191.89401
 -4934.752438 -477017.708 20040.60266
 -8812.025115 -477008.2106 18904.66925
 0 0 -0
 0 0 0
 0 0 0
 0 0 0
 2958.589353 -476767.2049 25615.433
 1131.648817 -476755.2747 25980.73686
 -1131.667262 -476755.2746 25980.73827
 -2958.607436 -476767.2045 25615.43743
 0 0 -0
 0 0 -0
 0 0 -0
 0 0 0
 0 0 0
 0 0 0
 -3110.669148 -477005.6538 -20683.35814
 -1190.495734 -477001.2702 -20981.95072
 1190.477126 -477001.2702 -20981.95035
 3110.652785 -477005.654 -20683.35598
 0 0 -0
 0 0 -0
 0 0 -0
 0 0 0
 -9163.827465 -477132.0697 -15260.52563
 -5216.133531 -477160.9924 -16187.97758
 -2304.606931 -477121.3526 -17938.08676
 -785.1363576 -477101.5862 -18583.0918
 785.1170138 -477101.5863 -18583.09083
 2304.589182 -477121.3528 -17938.08317
 5216.114589 -477160.9928 -16187.97132
 9163.808111 -477132.0703 -15260.51849
 0 0 -0
 0 0 0
 -5131.137648 -477275.9791 -12376.69085
 -3519.218535 -477270.1602 -13140.79716
 -1748.947354 -477253.5945 -14064.81587
 -539.6613356 -477242.2336 -14540.65059
 539.6423634 -477242.2337 -14540.64949
 1748.929022 -477253.5947 -14064.81144
 3519.200588 -477270.1605 -13140.79144
 5131.120483 -477275.9795 -12376.68257
 0 0 -0
 -3175.122917 -477426.9781 -5026.978737
 -2286.536816 -477402.9779 -7282.84056
 -1734.196374 -477388.6803 -8301.312782
 -980.3533915 -477379.4851 -8929.579096
 -310.1184019 -477374.5512 -9236.503115
 310.1000876 -477374.5512 -9236.501501
 980.3355704 -477379.4852 -8929.574678
 1734.179734 -477388.6805 -8301.305693
 2286.520875 -477402.9781 -7282.832276
 3175.106755 -477426.9783 -5026.969003
 -1204.55224 -477458.5159 -1945.745524
 -783.0676181 -477456.9302 -2477.475676
 -533.9491628 -477455.2765 -2836.391052
 -308.3228546 -477454.1102 -3057.592344
 -99.33931162 -477453.5046 -3164.231564
 99.3234448 -477453.5046 -3164.229691
 308.3073241 -477454.1103 -3057.58715
 533.9343684 -477455.2766 -2836.383211
 783.0531273 -477456.9303 -2477.464881
 1204.537878 -477458.516 -1945.733777
 1204.542498 -477458.516 1945.731877
 783.0578134 -477456.9303 2477.464165
 533.938406 -477455.2766 2836.382409
 308.3107937 -477454.1103 3057.587268
 99.32546051 -477453.5046 3164.230144
 -99.3387873 -477453.5046 3164.232
 -308.323937 -477454.1102 3057.592416
 -533.9519416 -477455.2765 2836.390741
 -783.0712592 -477456.9302 2477.474406
 -1204.556623 -477458.5159 1945.744877
 3175.112105 -477426.9783 5026.966136
 2286.526272 -477402.9781 7282.830547
 1734.185187 -477388.6805 8301.304906
 980.3402817 -477379.4852 8929.574401
 310.1035982 -477374.5512 9236.501974
 -310.116342 -477374.5512 9236.503902
 -980.3529317 -477379.4851 8929.579932
 -1734.197723 -477388.6803 8301.312894
 -2286.539284 -477402.9779 7282.840525
 -3175.126554 -477426.978 5026.979076
 0 0 0
 5131.127914 -477275.9795 12376.68156
 3519.207146 -477270.1605 13140.79023
 1748.933949 -477253.5946 14064.8117
 539.6461574 -477242.2336 14540.65007
 -539.6586899 -477242.2336 14540.65194
 -1748.946025 -477253.5944 14064.81681
 -3519.217766 -477270.1602 13140.7981
 -5131.137466 -477275.9791 12376.6906
 0 0 -0
 0 0 0
 9163.817433 -477132.0701 15260.51763
 5216.12214 -477160.9927 16187.97131
 2304.594018 -477121.3528 17938.08353
 785.120785 -477101.5862 18583.09241
 -785.13325 -477101.5862 18583.09288
 -2304.604892 -477121.3526 17938.08818
 -5216.131149 -477160.9924 16187.97772
 -9163.824643 -477132.0697 15260.52544
 0 0 -0
 0 0 0
 0 0 0
 0 0 0
 3110.655867 -477005.6539 20683.35666
 1190.480885 -477001.2702 20981.95142
 -1190.492508 -477001.2701 20981.95324
 -3110.667189 -477005.6537 20683.3609
 0 0 -0
 0 0 -0
 0 0 -0
 0 0 0
 0 0 0
 0 0 0
 -3234.767809 -477178.3081 -16194.74893
 -1238.704631 -477179.6283 -16429.82805
 1238.695195 -477179.6283 -16429.82744
 3234.760225 -477178.3081 -16194.74795
 0 0 -0
 0 0 -0
 0 0 -0
 0 0 0
 -9448.427595 -477220.9814 -11947.10751
 -5447.842303 -477264.5826 -12677.16587
 -2446.990672 -477250.8785 -14052.84639
 -834.345267 -477241.1535 -14562.16161
 834.3336557 -477241.1536 -14562.16053
 2446.97956 -477250.8787 -14052.84265
 5447.829255 -477264.5829 -12677.15847
 9448.41295 -477220.982 -11947.09815
 0 0 -0
 0 0 0
 -5361.041914 -477335.5084 -9692.416724
 -3707.406894 -477338.556 -10297.05861
 -1868.26644 -477332.9416 -11029.22308
 -580.450526 -477327.3464 -11407.83782
 580.4377761 -477327.3464 -11407.837
 1868.254608 -477332.9417 -11029.21906
 3707.394157 -477338.5562 -10297.05094
 5361.028154 -477335.5088 -9692.406835
 0 0 -0
 -3302.014742 -477436.4192 -3928.56095
 -2429.180156 -477423.7666 -5702.412445
 -1853.460796 -477416.0403 -6508.48708
 -1056.929148 -477411.3832 -7008.947163
 -336.3193349 -477408.7641 -7254.665977
 336.3063171 -477408.7641 -7254.664779
 1056.916511 -477411.3833 -7008.943167
 1853.448397 -477416.0405 -6508.479098
 2429.166951 -477423.7667 -5702.402617
 3302.001127 -477436.4194 -3928.550146
 -1253.674912 -477459.9322 -1520.775539
 -832.5278067 -477459.3333 -1939.903484
 -574.7458721 -477458.4716 -2224.613058
 -334.5152636 -477457.8443 -2401.319199
 -108.3016374 -477457.5107 -2486.972722
 108.2899678 -477457.5107 -2486.971595
 334.5039607 -477457.8443 -2401.314689
 574.7344833 -477458.4716 -2224.604553
 832.515962 -477459.3334 -1939.893222
 1253.662193 -477459.9323 -1520.763648
 1253.666079 -477459.9322 1520.762472
 832.5193968 -477459.3334 1939.892371
 574.7379759 -477458.4716 2224.60405
 334.5065176 -477457.8443 2401.313899
 108.2917396 -477457.5107 2486.97109
 -108.3009252 -477457.5107 2486.972501
 -334.5160731 -477457.8443 2401.31883
 -574.7475462 -477458.4716 2224.612074
 -832.5303944 -477459.3333 1939.902403
 -1253.677744 -477459.9322 1520.77464
 3302.005721 -477436.4194 3928.548228
 2429.171987 -477423.7667 5702.402143
 1853.452988 -477416.0405 6508.478442
 1056.920518 -477411.3833 7008.941961
 336.3094891 -477408.7641 7254.664245
 -336.3174408 -477408.7641 7254.665976
 -1056.928318 -477411.3832 7008.947543
 -1853.461025 -477416.0404 6508.486173
 -2429.181312 -477423.7666 5702.411031
 -3302.016876 -477436.4192 3928.560981
 0 0 0
 5361.035046 -477335.5087 9692.407198
 3707.400105 -477338.5562 10297.05042
 1868.258763 -477332.9417 11029.21857
 580.4405867 -477327.3464 11407.83624
 -580.4481795 -477327.3464 11407.83843
 -1868.265091 -477332.9416 11029.22292
 -3707.405443 -477338.556 10297.05772
 -5361.040371 -477335.5085 9692.414431
 0 0 -0
 0 0 0
 9448.421828 -477220.9818 11947.0996
 5447.836242 -477264.5828 12677.15922
 2446.983434 -477250.8787 14052.84211
 834.3365603 -477241.1536 14562.16094
 -834.3433092 -477241.1535 14562.16142
 -2446.988587 -477250.8785 14052.84679
 -5447.839171 -477264.5827 12677.16366
 -9448.423625 -477220.9816 11947.10391
 0 0 -0
 0 0 0
 0 0 0
 0 0 0
 3234.762487 -477178.3082 16194.74686
 1238.697678 -477179.6283 16429.82717
 -1238.702303 -477179.6283 16429.82911
 -3234.766172 -477178.308 16194.75067
 0 0 -0
 0 0 -0
 0 0 -0
 0 0 0
 0 0 0
 0 0 0
 -3330.314211 -477298.4513 -12123.06256
 -1275.898188 -477303.8518 -12299.44759
 1275.891183 -477303.8519 -12299.44593
 3330.308157 -477298.4514 -12123.06109
 0 0 -0
 0 0 -0
 0 0 -0
 0 0 0
 -9666.940464 -477282.3566 -8942.796
 -5627.273324 -477336.4982 -9490.658451
 -2557.987674 -477341.1808 -10522.60172
 -872.8732323 -477338.6417 -10905.52767
 872.8653353 -477338.6418 -10905.52578
 2557.979811 -477341.1809 -10522.59702
 5627.264178 -477336.4985 -9490.649903
 9666.93028 -477282.357 -8942.785362
 0 0 -0
 0 0 0
 -5539.152861 -477376.7232 -7256.252102
 -3854.699849 -477386.1628 -7711.300465
 -1962.67571 -477388.4634 -8262.823075
 -612.9384956 -477387.0715 -8548.65769
 612.9295875 -477387.0716 -8548.656536
 1962.666507 -477388.4635 -8262.818268
 3854.689992 -477386.163 -7711.292868
 5539.14224 -477376.7235 -7256.241971
 0 0 -0
 -3399.650266 -477442.8616 -2937.280057
 -2540.388119 -477438.1609 -4268.514759
 -1947.839016 -477435.1337 -4875.486959
 -1118.34887 -477433.7862 -5253.605866
 -357.503679 -477432.8775 -5439.757199
 357.4947124 -477432.8775 -5439.755988
 1118.339752 -477433.7863 -5253.602225
 1947.828907 -477435.1338 -4875.478613
 2540.377251 -477438.1611 -4268.50496
 3399.637691 -477442.8617 -2937.268435
 -1291.56916 -477460.899 -1137.13057
 -871.2586533 -477460.997 -1452.096345
 -607.2486316 -477460.7046 -1666.758655
 -355.6960053 -477460.4727 -1800.488511
 -115.6105647 -477460.3416 -1865.500707
 115.602615 -477460.3416 -1865.498839
 355.68798 -477460.4728 -1800.482183
 607.2401696 -477460.7047 -1666.750341
 871.2490762 -477460.997 -1452.086663
 1291.557877 -477460.8991 -1137.119284
 1291.561581 -477460.8991 1137.119247
 871.2526697 -477460.997 1452.086723
 607.2431317 -477460.7047 1666.749723
 355.6906761 -477460.4728 1800.480998
 115.6042544 -477460.3417 1865.497218
 -115.6097562 -477460.3416 1865.499653
 -355.6956821 -477460.4727 1800.487389
 -607.2490774 -477460.7046 1666.757573
 -871.2593565 -477460.997 1452.095684
 -1291.570024 -477460.899 1137.130743
 3399.643715 -477442.8617 2937.268713
 2540.383065 -477438.161 4268.50557
 1947.834549 -477435.1338 4875.478552
 1118.343803 -477433.7863 5253.600522
 357.497681 -477432.8775 5439.754641
 -357.5012592 -477432.8775 5439.756212
 -1118.346904 -477433.7862 5253.605348
 -1947.83701 -477435.1337 4875.485525
 -2540.386505 -477438.1609 4268.513391
 -3399.649062 -477442.8616 2937.279842
 0 0 0
 5539.149455 -477376.7234 7256.243985
 3854.696052 -477386.1629 7711.293593
 1962.671458 -477388.4635 8262.817586
 612.9331241 -477387.0716 8548.655483
 -612.9358918 -477387.0715 8548.656529
 -1962.672718 -477388.4634 8262.8218
 -3854.696829 -477386.1629 7711.297934
 -5539.149744 -477376.7233 7256.248518
 0 0 -0
 0 0 0
 9666.938245 -477282.3568 8942.788968
 5627.271239 -477336.4983 9490.65203
 2557.984689 -477341.1809 10522.59766
 872.8691173 -477338.6418 10905.52509
 -872.8697386 -477338.6417 10905.52643
 -2557.984522 -477341.1808 10522.59913
 -5627.269156 -477336.4983 9490.654421
 -9666.936241 -477282.3568 8942.790376
 0 0 -0
 0 0 0
 0 0 0
 0 0 0
 3330.312123 -477298.4514 12123.06072
 1275.895234 -477303.8519 12299.4457
 -1275.894579 -477303.8519 12299.44614
 -3330.310897 -477298.4514 12123.06132
 0 0 -0
 0 0 -0
 0 0 -0
 0 0 0
 0 0 0
 0 0 0
 -3399.097362 -477378.0077 -8399.716266
 -1302.698849 -477386.1635 -8522.037969
 1302.694656 -477386.1636 -8522.03682
 3399.092987 -477378.0077 -8399.714347
 0 0 -0
 0 0 -0
 0 0 -0
 0 0 0
 -9824.158648 -477322.7066 -6196.044529
 -5756.927382 -477384.0011 -6576.063442
 -2638.445489 -477401.0251 -7291.852396
 -900.8576503 -477403.3305 -7557.765974
 900.8520736 -477403.3305 -7557.763805
 2638.440694 -477401.0252 -7291.848525
 5756.921092 -477384.0012 -6576.055632
 9824.152725 -477322.7068 -6196.035442
 0 0 -0
 0 0 0
 -5667.895792 -477403.8815 -5027.942015
 -3961.715831 -477417.6546 -5344.079472
 -2031.643531 -477425.3239 -5727.463396
 -636.7516202 -477426.7941 -5926.38941
 636.7459999 -477426.7942 -5926.387551
 2031.636823 -477425.324 -5727.459139
 3961.709082 -477417.6547 -5344.072821
 5667.888043 -477403.8817 -5027.933392
 0 0 -0
 -3469.932024 -477447.0602 -2033.600255
 -2621.014232 -477447.6469 -2957.374742
 -2016.793071 -477447.7817 -3379.28771
 -1163.539184 -477448.6874 -3642.57687
 -373.1545034 -477448.9514 -3772.376848
 373.1483764 -477448.9515 -3772.3749
 1163.532896 -477448.6875 -3642.571931
 2016.785436 -477447.7818 -3379.28118
 2621.003865 -477447.647 -2957.366942
 3469.919537 -477447.0604 -2033.591917
 -1318.884732 -477461.5293 -787.3208815
 -899.3992844 -477462.093 -1006.044474
 -631.0785214 -477462.1851 -1155.368312
 -371.3457378 -477462.2231 -1248.572177
 -121.036398 -477462.2313 -1293.953076
 121.0320528 -477462.2313 -1293.951441
 371.3406479 -477462.2231 -1248.567766
 631.0719594 -477462.1851 -1155.361793
 899.3915924 -477462.093 -1006.03695
 1318.874696 -477461.5293 -787.312048
 1318.878503 -477461.5293 787.3126875
 899.3947839 -477462.093 1006.037457
 631.0750582 -477462.1851 1155.361209
 371.3425363 -477462.2231 1248.566054
 121.0331054 -477462.2313 1293.94946
 -121.0359158 -477462.2313 1293.951253
 -371.3454469 -477462.2231 1248.571085
 -631.0780422 -477462.1851 1155.367868
 -899.3990545 -477462.093 1006.044746
 -1318.884142 -477461.5293 787.3225595
 3469.925727 -477447.0603 2033.592456
 2621.009926 -477447.647 2957.367701
 2016.790241 -477447.7818 3379.28117
 1163.536679 -477448.6875 3642.570638
 373.1511865 -477448.9515 3772.373073
 -373.1524349 -477448.9514 3772.374989
 -1163.537104 -477448.6874 3642.575387
 -2016.790775 -477447.7817 3379.286457
 -2621.011394 -477447.6469 2957.374526
 -3469.929144 -477447.0603 2033.601936
 0 0 0
 5667.894263 -477403.8816 5027.935957
 3961.714579 -477417.6547 5344.073956
 2031.641127 -477425.3239 5727.458695
 636.7489628 -477426.7942 5926.386436
 -636.7491814 -477426.7942 5926.387093
 -2031.641025 -477425.3239 5727.461165
 -3961.712963 -477417.6546 5344.076864
 -5667.892826 -477403.8815 5027.93892
 0 0 -0
 0 0 0
 9824.158743 -477322.7067 6196.03949
 5756.926436 -477384.0011 6576.058701
 2638.444982 -477401.0252 7291.849557
 900.8561854 -477403.3305 7557.763234
 -900.8544355 -477403.3305 7557.763472
 -2638.442847 -477401.0252 7291.848937
 -5756.924763 -477384.0012 6576.058715
 -9824.155863 -477322.7067 6196.039566
 0 0 -0
 0 0 0
 0 0 0
 0 0 0
 3399.09734 -477378.0077 8399.715465