# OOMMF OVF 2.0
#
# Segment count: 1
#
# Begin: Segment
# Begin: Header
#
# Title: Oxs_MinDriver::Magnetization
# Desc: Oxs vector field output
# Desc:  MIF source file: F:/Bogdan/UNIC/2022/Master_degree/Samples/Cylinder0_5000 1.mif
# Desc:  Iteration: 1002, State id: 4454
# Desc:  Stage: 6, Stage iteration: 44
# Desc:  Stage simulation time: 0 s
# Desc:  Total simulation time: -2 s
# meshunit: m
# meshtype: rectangular
# xbase: -8.9999999999999995e-09
# ybase: -8.9999999999999995e-09
# zbase: -2.0999999999999999e-08
# xnodes: 10
# ynodes: 10
# znodes: 22
# xstepsize: 2.0000000000000001e-09
# ystepsize: 2.0000000000000001e-09
# zstepsize: 2.0000000000000001e-09
# xmin: -1e-08
# ymin: -1e-08
# zmin: -2.1999999999999998e-08
# xmax: 1e-08
# ymax: 1e-08
# zmax: 2.2000000000000005e-08
# valuedim: 3
# valuelabels: Magnetization_x Magnetization_y Magnetization_z
# valueunits: A/m A/m A/m
#
# End: Header
#
# Begin: Data Text
 0 0 0
 0 0 0
 0 0 0
 7716.112766 28870.18936 476527.9059
 2898.453962 29067.37072 476569.5733
 -2898.453946 29067.37072 476569.5733
 -7716.11275 28870.18936 476527.9059
 0 0 -0
 0 0 -0
 0 0 -0
 0 0 0
 21456.0856 21456.08554 476498.8395
 17022.66488 22349.65084 476636.7519
 10085.551 24209.77158 476743.1593
 3407.378941 24697.49595 476812.6411
 -3407.378924 24697.49595 476812.6411
 -10085.55098 24209.77158 476743.1593
 -17022.66487 22349.65084 476636.7519
 -21456.08558 21456.08554 476498.8395
 0 0 -0
 0 0 0
 22349.65089 17022.66483 476636.7519
 17535.319 17535.31893 476819.5639
 10852.90235 18241.10879 476991.9787
 3667.057276 18545.46197 477089.6036
 -3667.057259 18545.46197 477089.6036
 -10852.90234 18241.10879 476991.9787
 -17535.31898 17535.31894 476819.5639
 -22349.65088 17022.66483 476636.7519
 0 0 -0
 28870.18941 7716.112713 476527.9059
 24209.77165 10085.55093 476743.1593
 18241.10883 10852.90231 476991.9787
 11262.19129 11262.19121 477198.2789
 3802.446431 11439.93309 477311.7856
 -3802.446415 11439.93308 477311.7856
 -11262.19127 11262.19121 477198.2789
 -18241.10882 10852.90231 476991.9787
 -24209.77163 10085.55093 476743.1593
 -28870.18939 7716.112712 476527.9059
 29067.37078 2898.453903 476569.5733
 24697.49599 3407.378895 476812.6411
 18545.46205 3667.057202 477089.6036
 11439.93312 3802.446398 477311.7856
 3861.264851 3861.264766 477432.7728
 -3861.264834 3861.264771 477432.7728
 -11439.93311 3802.446393 477311.7856
 -18545.46203 3667.057205 477089.6036
 -24697.49598 3407.378893 476812.6411
 -29067.37076 2898.453904 476569.5733
 29067.37077 -2898.453999 476569.5733
 24697.49602 -3407.37899 476812.6411
 18545.46201 -3667.057299 477089.6036
 11439.93317 -3802.446494 477311.7856
 3861.264799 -3861.264865 477432.7728
 -3861.264783 -3861.264867 477432.7728
 -11439.93315 -3802.446492 477311.7856
 -18545.46199 -3667.057301 477089.6036
 -24697.496 -3407.378989 476812.6411
 -29067.37075 -2898.453999 476569.5733
 28870.18941 -7716.112807 476527.9059
 24209.77163 -10085.55103 476743.1593
 18241.10886 -10852.90241 476991.9787
 11262.19125 -11262.19131 477198.2789
 3802.446477 -11439.93319 477311.7856
 -3802.44646 -11439.93319 477311.7856
 -11262.19123 -11262.19131 477198.2789
 -18241.10884 -10852.90241 476991.9787
 -24209.77161 -10085.55103 476743.1593
 -28870.1894 -7716.112807 476527.9059
 0 0 0
 22349.6509 -17022.66493 476636.7519
 17535.31898 -17535.31903 476819.5639
 10852.90238 -18241.10889 476991.9787
 3667.057241 -18545.46207 477089.6036
 -3667.057224 -18545.46207 477089.6036
 -10852.90236 -18241.10889 476991.9787
 -17535.31897 -17535.31903 476819.5639
 -22349.65089 -17022.66493 476636.7519
 0 0 -0
 0 0 0
 21456.0856 -21456.08564 476498.8395
 17022.66489 -22349.65094 476636.7519
 10085.55098 -24209.77168 476743.1593
 3407.378962 -24697.49604 476812.6411
 -3407.378945 -24697.49604 476812.6411
 -10085.55096 -24209.77168 476743.1593
 -17022.66488 -22349.65094 476636.7519
 -21456.08558 -21456.08564 476498.8395
 0 0 -0
 0 0 0
 0 0 0
 0 0 0
 7716.112771 -28870.18945 476527.9059
 2898.453956 -29067.37081 476569.5733
 -2898.453939 -29067.37081 476569.5733
 -7716.112754 -28870.18945 476527.9059
 0 0 -0
 0 0 -0
 0 0 -0
 0 0 0
 0 0 0
 0 0 0
 6407.634333 24787.71148 476777.0788
 2464.95182 24972.02476 476804.1456
 -2464.951804 24972.02475 476804.1456
 -6407.634317 24787.71148 476777.0788
 0 0 -0
 0 0 -0
 0 0 -0
 0 0 0
 18385.98358 18385.98353 476755.4746
 14798.81837 19231.91524 476846.9353
 8746.380786 21125.33985 476916.2318
 2974.871261 21697.08939 476961.4846
 -2974.871244 21697.08941 476961.4846
 -8746.380772 21125.33984 476916.2318
 -14798.81835 19231.91525 476846.9353
 -18385.98356 18385.98352 476755.4746
 0 0 -0
 0 0 0
 19231.91531 14798.8183 476846.9353
 15403.8617 15403.86168 476966.7844
 9622.351216 16191.90767 477092.343
 3266.554764 16554.85532 477165.734
 -3266.554749 16554.8553 477165.734
 -9622.351196 16191.90769 477092.343
 -15403.86169 15403.86167 476966.7844
 -19231.91529 14798.81831 476846.9353
 0 0 -0
 24787.71154 6407.634273 476777.0788
 21125.33987 8746.380757 476916.2318
 16191.90778 9622.351114 477092.343
 10096.14948 10096.14949 477250.4655
 3423.790346 10306.27244 477340.4757
 -3423.790327 10306.27246 477340.4757
 -10096.14947 10096.14948 477250.4655
 -16191.90776 9622.351128 477092.343
 -21125.33986 8746.380749 476916.2318
 -24787.71153 6407.634275 476777.0788
 24972.0248 2464.951775 476804.1456
 21697.08949 2974.871176 476961.4846
 16554.85532 3266.554759 477165.734
 10306.27257 3423.790221 477340.4757
 3492.996852 3492.996878 477438.4455
 -3492.996838 3492.996861 477438.4455
 -10306.27255 3423.790235 477340.4757
 -16554.85531 3266.554748 477165.734
 -21697.08947 2974.871182 476961.4846
 -24972.02479 2464.951773 476804.1456
 24972.02482 -2464.951868 476804.1456
 21697.08942 -2974.871271 476961.4846
 16554.85542 -3266.554852 477165.734
 10306.27244 -3423.790319 477340.4757
 3492.997002 -3492.99697 477438.4455
 -3492.996984 -3492.996961 477438.4455
 -10306.27243 -3423.790327 477340.4757
 -16554.8554 -3266.554845 477165.734
 -21697.08941 -2974.871275 476961.4846
 -24972.0248 -2464.951866 476804.1456
 24787.71153 -6407.634366 476777.0788
 21125.33992 -8746.380847 476916.2318
 16191.90769 -9622.351214 477092.343
 10096.1496 -10096.14958 477250.4655
 3423.790213 -10306.27255 477340.4757
 -3423.790199 -10306.27255 477340.4757
 -10096.14958 -10096.14958 477250.4655
 -16191.90768 -9622.351216 477092.343
 -21125.3399 -8746.380846 476916.2318
 -24787.71152 -6407.634367 476777.0788
 0 0 0
 19231.91528 -14798.8184 476846.9353
 15403.86176 -15403.86177 476966.7844
 9622.351128 -16191.90778 477092.343
 3266.554865 -16554.85541 477165.734
 -3266.554848 -16554.85541 477165.734
 -9622.351115 -16191.90778 477092.343
 -15403.86174 -15403.86177 476966.7844
 -19231.91527 -14798.8184 476846.9353
 0 0 -0
 0 0 0
 18385.98359 -18385.98362 476755.4745
 14798.81835 -19231.91534 476846.9353
 8746.380836 -21125.33993 476916.2318
 2974.871199 -21697.0895 476961.4846
 -2974.871184 -21697.08949 476961.4846
 -8746.380818 -21125.33994 476916.2318
 -14798.81833 -19231.91534 476846.9353
 -18385.98357 -18385.98362 476755.4745
 0 0 -0
 0 0 0
 0 0 0
 0 0 0
 6407.634321 -24787.71158 476777.0788
 2464.95184 -24972.02485 476804.1456
 -2464.951823 -24972.02485 476804.1456
 -6407.634306 -24787.71158 476777.0788
 0 0 -0
 0 0 -0
 0 0 -0
 0 0 0
 0 0 0
 0 0 0
 5059.900396 19962.14753 477019.6866
 1959.467686 20118.34816 477035.9356
 -1959.467671 20118.34817 477035.9356
 -5059.900382 19962.14753 477019.6866
 0 0 -0
 0 0 -0
 0 0 -0
 0 0 0
 14800.15008 14800.15002 477005.013
 11982.57545 15517.95911 477061.2981
 7072.003499 17153.20964 477103.3698
 2411.097665 17689.23203 477130.1174
 -2411.097652 17689.232 477130.1174
 -7072.003481 17153.20966 477103.3698
 -11982.57544 15517.9591 477061.2981
 -14800.15007 14800.15003 477005.013
 0 0 -0
 0 0 0
 15517.95914 11982.57542 477061.2981
 12559.73828 12559.73818 477133.5004
 7901.783411 13311.67632 477212.9843
 2693.074393 13677.65549 477260.4534
 -2693.074376 13677.65553 477260.4534
 -7901.783402 13311.67628 477212.9843
 -12559.73826 12559.7382 477133.5004
 -15517.95913 11982.57541 477061.2981
 0 0 -0
 19962.14757 5059.900354 477019.6866
 17153.20974 7072.003407 477103.3698
 13311.67629 7901.783431 477212.9843
 8377.292471 8377.292316 477316.9945
 2854.161533 8596.719408 477378.0697
 -2854.161521 8596.719366 477378.0697
 -8377.292448 8377.292352 477316.9945
 -13311.67628 7901.783405 477212.9843
 -17153.20972 7072.003421 477103.3698
 -19962.14756 5059.90035 477019.6866
 20118.34823 1959.467619 477035.9356
 17689.23202 2411.097659 477130.1174
 13677.65564 2693.074261 477260.4534
 8596.719339 2854.161588 477378.0697
 2927.501658 2927.501476 477446.0501
 -2927.501639 2927.501511 477446.0501
 -8596.719333 2854.161557 477378.0697
 -13677.65561 2693.074284 477260.4534
 -17689.23201 2411.097645 477130.1174
 -20118.34821 1959.467624 477035.9356
 20118.3482 -1959.46771 477035.9356
 17689.23212 -2411.097747 477130.1174
 13677.65548 -2693.074356 477260.4534
 8596.719546 -2854.161674 477378.0697
 2927.50143 -2927.501574 477446.0501
 -2927.501419 -2927.501596 477446.0501
 -8596.719521 -2854.161654 477378.0697
 -13677.65547 -2693.074371 477260.4534
 -17689.2321 -2411.097738 477130.1174
 -20118.34819 -1959.467713 477035.9356
 19962.14759 -5059.900442 477019.6866
 17153.20966 -7072.003502 477103.3698
 13311.67643 -7901.783512 477212.9843
 8377.29229 -8377.292421 477316.9945
 2854.161734 -8596.719483 477378.0697
 -2854.161716 -8596.719473 477378.0697
 -8377.292283 -8377.292429 477316.9945
 -13311.6764 -7901.783505 477212.9843
 -17153.20966 -7072.003506 477103.3698
 -19962.14757 -5059.900441 477019.6866
 0 0 0
 15517.95918 -11982.57551 477061.2981
 12559.73819 -12559.73828 477133.5004
 7901.783545 -13311.67639 477212.9843
 2693.07424 -13677.6556 477260.4534
 -2693.074227 -13677.6556 477260.4534
 -7901.783525 -13311.67639 477212.9843
 -12559.73818 -12559.73828 477133.5004
 -15517.95916 -11982.57551 477061.2981
 0 0 -0
 0 0 0
 14800.15007 -14800.15011 477005.013
 11982.57549 -15517.95919 477061.2981
 7072.003424 -17153.20974 477103.3698
 2411.097758 -17689.23211 477130.1174
 -2411.097742 -17689.23211 477130.1174
 -7072.003411 -17153.20974 477103.3698
 -11982.57548 -15517.95919 477061.2981
 -14800.15006 -14800.15011 477005.013
 0 0 -0
 0 0 0
 0 0 0
 0 0 0
 5059.900415 -19962.14762 477019.6866
 1959.467657 -20118.34826 477035.9356
 -1959.467642 -20118.34825 477035.9356
 -5059.9004 -19962.14762 477019.6866
 0 0 -0
 0 0 -0
 0 0 -0
 0 0 0
 0 0 0
 0 0 0
 3884.320486 15495.49982 477196.6815
 1506.452132 15617.21025 477206.1448
 -1506.452119 15617.21024 477206.1448
 -3884.320472 15495.49983 477196.6815
 0 0 -0
 0 0 -0
 0 0 -0
 0 0 0
 11489.57247 11489.57243 477187.4377
 9317.962956 12053.98672 477220.859
 5492.230285 13356.66482 477245.5408
 1873.322622 13799.04598 477260.8807
 -1873.322607 13799.04602 477260.8807
 -5492.230276 13356.66478 477245.5408
 -9317.96294 12053.98674 477220.859
 -11489.57246 11489.57243 477187.4377
 0 0 -0
 0 0 0
 12053.9868 9317.96288 477220.859
 9798.173229 9798.173247 477262.8866
 6187.02815 10431.49573 477309.9369
 2113.375125 10749.67123 477338.2967
 -2113.375115 10749.67117 477338.2967
 -6187.028129 10431.49578 477309.9369
 -9798.173224 9798.173213 477262.8866
 -12053.98678 9317.962894 477220.859
 0 0 -0
 15495.49989 3884.320425 477196.6815
 13356.66481 5492.230286 477245.5408
 10431.49588 6187.028007 477309.9369
 6602.243638 6602.243719 477372.6972
 2256.570087 6799.789362 477410.245
 -2256.570069 6799.789431 477410.245
 -6602.243636 6602.243659 477372.6972
 -10431.49586 6187.028051 477309.9369
 -13356.6648 5492.230262 477245.5408
 -15495.49987 3884.320431 477196.6815
 15617.21028 1506.452101 477206.1448
 13799.04611 1873.322513 477260.8807
 10749.67116 2113.375176 477338.2967
 6799.789569 2256.569898 477410.245
 2323.718194 2323.718307 477452.6908
 -2323.718185 2323.718245 477452.6908
 -6799.789543 2256.569953 477410.245
 -10749.67116 2113.375134 477338.2967
 -13799.04608 1873.322538 477260.8807
 -15617.21027 1506.452093 477206.1448
 15617.21032 -1506.452186 477206.1448
 13799.04599 -1873.322603 477260.8807
 10749.67135 -2113.375258 477338.2967
 6799.789318 -2256.569992 477410.245
 2323.718468 -2323.718387 477452.6908
 -2323.718449 -2323.718341 477452.6908
 -6799.789317 -2256.570033 477410.245
 -10749.67132 -2113.375226 477338.2967
 -13799.04599 -1873.322622 477260.8807
 -15617.2103 -1506.45218 477206.1448
 15495.49986 -3884.320512 477196.6815
 13356.6649 -5492.230366 477245.5408
 10431.49572 -6187.028106 477309.9369
 6602.243858 -6602.243788 477372.6972
 2256.569844 -6799.789471 477410.245
 -2256.569835 -6799.789497 477410.245
 -6602.243834 -6602.243764 477372.6972
 -10431.49571 -6187.028125 477309.9369
 -13356.66488 -5492.230355 477245.5408
 -15495.49985 -3884.320515 477196.6815
 0 0 0
 12053.98675 -9317.962972 477220.859
 9798.173344 -9798.17332 477262.8866
 6187.027988 -10431.49584 477309.9369
 2113.37531 -10749.67129 477338.2967
 -2113.375293 -10749.67128 477338.2967
 -6187.027982 -10431.49585 477309.9369
 -9798.173322 -9798.173313 477262.8866
 -12053.98675 -9317.962975 477220.859
 0 0 -0
 0 0 0
 11489.57249 -11489.57252 477187.4377
 9317.962911 -12053.98682 477220.859
 5492.230377 -13356.66489 477245.5408
 1873.32251 -13799.04609 477260.8807
 -1873.322499 -13799.04609 477260.8807
 -5492.23036 -13356.66489 477245.5408
 -9317.9629 -12053.98682 477220.859
 -11489.57248 -11489.57252 477187.4377
 0 0 -0
 0 0 0
 0 0 0
 0 0 0
 3884.320465 -15495.49991 477196.6815
 1506.452168 -15617.21033 477206.1448
 -1506.452154 -15617.21033 477206.1448
 -3884.320452 -15495.49991 477196.6815
 0 0 -0
 0 0 -0
 0 0 -0
 0 0 0
 0 0 0
 0 0 0
 2920.147126 11726.82564 477311.0365
 1132.783704 11816.4875 477316.4136
 -1132.783692 11816.48751 477316.4136
 -2920.147115 11726.82563 477311.0365
 0 0 -0
 0 0 -0
 0 0 -0
 0 0 0
 8697.346168 8697.34611 477305.5454
 7053.313333 9120.558174 477324.7715
 4151.655874 10113.88813 477338.815
 1415.701692 10455.1672 477347.417
 -1415.701682 10455.16714 477347.4171
 -4151.655857 10113.88818 477338.815
 -7053.313325 9120.558152 477324.7715
 -8697.346154 8697.346118 477305.5454
 0 0 -0
 0 0 0
 9120.558187 7053.313317 477324.7715
 7423.519709 7423.519585 477348.5666
 4693.699953 7918.189223 477375.2641
 1604.75659 8170.674181 477391.3867
 -1604.756574 8170.674271 477391.3867
 -4693.69995 7918.189147 477375.2641
 -7423.519687 7423.519635 477348.5666
 -9120.558181 7053.313296 477324.7715
 0 0 -0
 11726.82567 2920.147093 477311.0365
 10113.88825 4151.65577 477338.815
 7918.189152 4693.700011 477375.2641
 5024.924431 5024.924234 477411.1138
 1720.295933 5185.33915 477432.743
 -1720.295926 5185.339046 477432.7431
 -5024.924405 5024.924324 477411.1138
 -7918.189156 4693.699945 477375.2641
 -10113.88823 4151.655806 477338.815
 -11726.82566 2920.147084 477311.0365
 11816.48757 1132.783637 477316.4136
 10455.16716 1415.701711 477347.4171
 8170.674375 1604.756429 477391.3867
 5185.339018 1720.296042 477432.7431
 1775.490001 1775.489765 477457.3976
 -1775.489983 1775.489864 477457.3976
 -5185.339021 1720.295955 477432.7431
 -8170.674344 1604.756495 477391.3867
 -10455.16716 1415.701671 477347.4171
 -11816.48756 1132.783649 477316.4136
 11816.48753 -1132.78372 477316.4136
 10455.16729 -1415.70179 477347.417
 8170.674167 -1604.756518 477391.3867
 5185.339283 -1720.296117 477432.743
 1775.489713 -1775.489859 477457.3976
 -1775.489707 -1775.489938 477457.3976
 -5185.339255 -1720.296047 477432.743
 -8170.674173 -1604.756572 477391.3867
 -10455.16726 -1415.701757 477347.417
 -11816.48752 -1132.783731 477316.4136
 11726.8257 -2920.147173 477311.0365
 10113.88815 -4151.65586 477338.815
 7918.18933 -4693.700079 477375.2641
 5024.924199 -5024.924339 477411.1138
 1720.296187 -5185.339208 477432.743
 -1720.29617 -5185.339155 477432.743
 -5024.924201 -5024.924386 477411.1138
 -7918.189302 -4693.700043 477375.2641
 -10113.88815 -4151.655882 477338.815
 -11726.82568 -2920.147168 477311.0365
 0 0 0
 9120.558239 -7053.313394 477324.7715
 7423.519589 -7423.519684 477348.5666
 4693.700124 -7918.189282 477375.2641
 1604.756397 -8170.674295 477391.3867
 -1604.756388 -8170.674325 477391.3867
 -4693.700103 -7918.189256 477375.2641
 -7423.519587 -7423.519702 477348.5666
 -9120.558222 -7053.313385 477324.7715
 0 0 -0
 0 0 0
 8697.346152 -8697.346196 477305.5454
 7053.313384 -9120.558249 477324.7715
 4151.655778 -10113.88823 477338.815
 1415.701809 -10455.16726 477347.417
 -1415.701795 -10455.16725 477347.417
 -4151.655771 -10113.88824 477338.815
 -7053.313368 -9120.558242 477324.7715
 -8697.346142 -8697.346198 477305.5454
 0 0 -0
 0 0 0
 0 0 0
 0 0 0
 2920.14715 -11726.82572 477311.0365
 1132.783667 -11816.48759 477316.4136
 -1132.783656 -11816.48759 477316.4136
 -2920.147137 -11726.82572 477311.0365
 0 0 -0
 0 0 -0
 0 0 -0
 0 0 0
 0 0 0
 0 0 0
 2154.541013 8688.490002 477380.0785
 835.7200401 8752.196884 477383.0453
 -835.7200304 8752.196858 477383.0453
 -2154.541001 8688.490018 477380.0785
 0 0 -0
 0 0 -0
 0 0 -0
 0 0 0
 6445.772054 6445.772022 477376.974
 5223.760645 6753.283739 477387.6588
 3070.586109 7489.008223 477395.3891
 1046.521791 7741.865703 477400.0834
 -1046.521779 7741.865781 477400.0834
 -3070.586104 7489.008162 477395.3891
 -5223.760631 6753.283769 477387.6588
 -6445.772046 6445.772011 477376.974
 0 0 -0
 0 0 0
 6753.283819 5223.760569 477387.6588
 5496.414232 5496.414268 477400.7228
 3475.280929 5865.068519 477415.3272
 1188.337213 6054.488001 477424.1325
 -1188.337207 6054.487881 477424.1325
 -3475.280908 5865.068621 477415.3272
 -5496.414232 5496.4142 477400.7228
 -6753.283803 5223.760596 477387.6588
 0 0 -0
 8688.490066 2154.540955 477380.0785
 7489.008193 3070.586123 477395.3891
 5865.06869 3475.280774 477415.3272
 3724.815854 3724.815966 477434.9409
 1275.934206 3846.690302 477446.7994
 -1275.93419 3846.690444 477446.7994
 -3724.815859 3724.815843 477434.9409
 -5865.068662 3475.280864 477415.3272
 -7489.008195 3070.586073 477395.3891
 -8688.490052 2154.540967 477380.0785
 8752.196897 835.7200162 477383.0453
 7741.865847 1046.521678 477400.0834
 6054.48789 1188.337286 477424.1325
 3846.690538 1275.933996 477446.7994
 1318.171798 1318.171952 477460.3608
 -1318.171795 1318.171812 477460.3608
 -3846.69051 1275.93412 477446.7994
 -6054.487901 1188.337192 477424.1325
 -7741.86582 1046.521735 477400.0834
 -8752.196892 835.7199985 477383.0453
 8752.196937 -835.7200946 477383.0453
 7741.865723 -1046.521762 477400.0834
 6054.488089 -1188.33736 477424.1325
 3846.690288 -1275.934086 477446.7994
 1318.172069 -1318.172022 477460.3608
 -1318.172051 -1318.171903 477460.3608
 -3846.690295 -1275.934191 477446.7994
 -6054.488058 -1188.337279 477424.1325
 -7741.86573 -1046.521811 477400.0834
 -8752.196921 -835.7200788 477383.0453
 8688.490042 -2154.541036 477380.0785
 7489.008292 -3070.586195 477395.3891
 5865.068521 -3475.28087 477415.3272
 3724.816073 -3724.816023 477434.9409
 1275.933968 -3846.69041 477446.7994
 -1275.933963 -3846.690497 477446.7994
 -3724.816047 -3724.815946 477434.9409
 -5865.068529 -3475.280928 477415.3272
 -7489.008269 -3070.586161 477395.3891
 -8688.490035 -2154.541044 477380.0785
 0 0 0
 6753.283772 -5223.760655 477387.6588
 5496.414346 -5496.41433 477400.7228
 3475.280768 -5865.068626 477415.3272
 1188.337395 -6054.488048 477424.1325
 -1188.33738 -6054.487994 477424.1325
 -3475.280768 -5865.068674 477415.3272
 -5496.414325 -5496.414297 477400.7228
 -6753.283767 -5223.76067 477387.6588
 0 0 -0
 0 0 0
 6445.772072 -6445.772098 477376.974
 5223.7606 -6753.283828 477387.6588
 3070.5862 -7489.008284 477395.3891
 1046.521682 -7741.865808 477400.0834
 -1046.521674 -7741.865836 477400.0834
 -3070.586185 -7489.008261 477395.3891
 -5223.760594 -6753.28384 477387.6588
 -6445.77206 -6445.772094 477376.974
 0 0 -0
 0 0 0
 0 0 0
 0 0 0
 2154.540992 -8688.490088 477380.0785
 835.7200748 -8752.196955 477383.0453
 -835.7200639 -8752.196947 477383.0453
 -2154.540983 -8688.490093 477380.0785
 0 0 -0
 0 0 -0
 0 0 -0
 0 0 0
 0 0 0
 0 0 0
 1555.625055 6290.177521 477420.0299
 603.3028288 6334.223943 477421.6008
 -603.3028196 6334.223974 477421.6008
 -1555.625048 6290.177502 477420.0299
 0 0 -0
 0 0 -0
 0 0 -0
 0 0 0
 4667.826736 4667.826682 477418.3638
 3779.553285 4885.48337 477424.0446
 2218.945966 5416.254553 477428.1221
 755.8334891 5597.840829 477430.5857
 -755.8334831 5597.840734 477430.5857
 -2218.945952 5416.254628 477428.1221
 -3779.553281 4885.483333 477424.0446
 -4667.826725 4667.826695 477418.3638
 0 0 -0
 0 0 0
 4885.483377 3779.553274 477424.0446
 3973.736471 3973.736349 477430.9271
 2511.043245 4238.980147 477438.5793
 858.3968601 4375.496056 477443.1793
 -858.3968469 4375.496204 477443.1793
 -2511.043248 4238.980022 477438.5793
 -3973.73645 3973.736433 477430.9271
 -4885.483375 3779.55324 477424.0446
 0 0 -0
 6290.177545 1555.625027 477420.0299
 5416.254671 2218.945866 477428.1221
 4238.980065 2511.043311 477438.5793
 2691.430229 2691.43003 477448.8284
 921.9149429 2779.771062 477455.018
 -921.9149408 2779.770883 477455.018
 -2691.430204 2691.430186 477448.8284
 -4238.980076 2511.043196 477438.5793
 -5416.254649 2218.945929 477428.1221
 -6290.17754 1555.625011 477420.0299
 6334.224018 603.3027662 477421.6008
 5597.840773 755.8335121 477430.5857
 4375.496255 858.3967017 477443.1793
 2779.770914 921.9150626 477455.018
 952.6447672 952.6445254 477462.0993
 -952.644751 952.644707 477462.0993
 -2779.770925 921.9149023 477455.018
 -4375.496223 858.3968233 477443.1793
 -5597.840782 755.833439 477430.5857
 -6334.224003 603.3027891 477421.6008
 6334.223983 -603.302844 477421.6008
 5597.840882 -755.8335856 477430.5857
 4375.496082 -858.3967857 477443.1793
 2779.771131 -921.915131 477455.018
 952.6445366 -952.644614 477462.0993
 -952.6445357 -952.644774 477462.0993
 -2779.771103 -921.9149893 477455.018
 -4375.496096 -858.3968942 477443.1793
 -5597.840855 -755.8335197 477430.5857
 -6334.223981 -603.302865 477421.6008
 6290.177567 -1555.625101 477420.0299
 5416.254585 -2218.945951 477428.1221
 4238.980213 -2511.043372 477438.5793
 2691.430041 -2691.430131 477448.8284
 921.9151466 -2779.771112 477455.018
 -921.9151315 -2779.770989 477455.018
 -2691.430049 -2691.43024 477448.8284
 -4238.980185 -2511.04329 477438.5793
 -5416.254591 -2218.945998 477428.1221
 -6290.177555 -1555.62509 477420.0299
 0 0 0
 4885.483421 -3779.553345 477424.0446
 3973.736373 -3973.736443 477430.9271
 2511.043385 -4238.980198 477438.5793
 858.3967054 -4375.496166 477443.1793
 -858.3967015 -4375.496249 477443.1793
 -2511.043365 -4238.980127 477438.5793
 -3973.736376 -3973.736493 477430.9271
 -4885.483406 -3779.553323 477424.0446
 0 0 -0
 0 0 0
 4667.826723 -4667.826763 477418.3638
 3779.553327 -4885.483438 477424.0446
 2218.945888 -5416.25465 477428.1221
 755.8335825 -5597.840882 477430.5857
 -755.8335714 -5597.840837 477430.5857
 -2218.945886 -5416.254686 477428.1221
 -3779.553314 -4885.48342 477424.0446
 -4667.826717 -4667.826769 477418.3638
 0 0 -0
 0 0 0
 0 0 0
 0 0 0
 1555.625075 -6290.177594 477420.0299
 603.3027997 -6334.224029 477421.6008
 -603.3027918 -6334.224043 477421.6008
 -1555.625065 -6290.177586 477420.0299
 0 0 -0
 0 0 -0
 0 0 -0
 0 0 0
 0 0 0
 0 0 0
 1086.791835 4402.03338 477442.4701
 421.3998746 4431.553079 477443.248
 -421.3998686 4431.553044 477443.248
 -1086.791827 4402.033401 477442.4701
 0 0 -0
 0 0 -0
 0 0 -0
 0 0 0
 3267.481664 3267.481634 477441.6388
 2643.438621 3416.568113 477444.4581
 1550.36272 3786.387876 477446.4692
 527.8193347 3912.145596 477447.6807
 -527.8193254 3912.145703 477447.6807
 -1550.362719 3786.387792 477446.4692
 -2643.438609 3416.568155 477444.4581
 -3267.481659 3267.48162 477441.6388
 0 0 -0
 0 0 0
 3416.568187 2643.438551 477444.4581
 2776.773935 2776.773969 477447.8509
 1753.31792 2960.442518 477451.6027
 599.1239463 3054.908126 477453.8511
 -599.1239444 3054.907957 477453.8511
 -1753.317902 2960.442661 477451.6027
 -2776.773941 2776.773873 477447.8509
 -3416.568174 2643.43859 477444.4581
 0 0 -0
 4402.033439 1086.791782 477442.4701
 3786.387846 1550.362732 477446.4692
 2960.442678 1753.317779 477451.6027
 1878.402725 1878.402831 477456.6101
 643.2224015 1939.64335 477459.6269
 -643.222388 1939.643558 477459.6269
 -1878.402735 1878.40265 477456.6101
 -2960.442651 1753.317912 477451.6027
 -3786.387854 1550.362658 477446.4692
 -4402.033428 1086.7918 477442.4701
 4431.553089 421.3998519 477443.248
 3912.145732 527.8192337 477447.6807
 3054.908018 599.1240119 477453.8511
 1939.643575 643.2222073 477459.6269
 664.558264 664.5584119 477463.075
 -664.5582652 664.5581965 477463.075
 -1939.643548 643.2223975 477459.6269
 -3054.908035 599.1238675 477453.8511
 -3912.145707 527.8193205 477447.6807
 -4431.553089 421.3998246 477443.248
 4431.553118 -421.3999262 477443.248
 3912.145644 -527.8193125 477447.6807
 3054.908158 -599.1240815 477453.8511
 1939.643402 -643.2222919 477459.6269
 664.558444 -664.5584778 477463.075
 -664.5584294 -664.5582827 477463.075
 -1939.643416 -643.2224647 477459.6269
 -3054.908127 -599.1239494 477453.8511
 -3912.145656 -527.8193927 477447.6807
 -4431.553105 -421.3999008 477443.248
 4402.033422 -1086.791859 477442.4701
 3786.387917 -1550.3628 477446.4692
 2960.442559 -1753.31787 477451.6027
 1878.402875 -1878.402885 477456.6101
 643.2222427 -1939.643453 477459.6269
 -643.2222427 -1939.643608 477459.6269
 -1878.402851 -1878.402748 477456.6101
 -2960.442573 -1753.317972 477451.6027
 -3786.387896 -1550.362741 477446.4692
 -4402.033419 -1086.791874 477442.4701
 0 0 0
 3416.568153 -2643.438633 477444.4581
 2776.774016 -2776.774029 477447.8509
 1753.31781 -2960.44262 477451.6027
 599.1240671 -3054.908171 477453.851
 -599.1240556 -3054.908064 477453.8511
 -1753.317815 -2960.442712 477451.6027
 -2776.773997 -2776.773965 477447.8509
 -3416.568153 -2643.43866 477444.4581
 0 0 -0
 0 0 0
 3267.481677 -3267.481707 477441.6388
 2643.438589 -3416.568197 477444.4581
 1550.362782 -3786.387934 477446.4692
 527.8192623 -3912.145696 477447.6807
 -527.8192583 -3912.145756 477447.6807
 -1550.36277 -3786.387886 477446.4692
 -2643.438587 -3416.568222 477444.4581
 -3267.481668 -3267.481698 477441.6388
 0 0 -0
 0 0 0
 0 0 0
 0 0 0
 1086.791821 -4402.033461 477442.4701
 421.3998976 -4431.553147 477443.248
 -421.3998903 -4431.553128 477443.248
 -1086.791816 -4402.033472 477442.4701
 0 0 -0
 0 0 -0
 0 0 -0
 0 0 0
 0 0 0
 0 0 0
 713.1019789 2891.489552 477454.7121
 276.4565114 2910.195143 477455.0509
 -276.4565059 2910.19518 477455.0509
 -713.1019753 2891.48953 477454.7121
 0 0 -0
 0 0 -0
 0 0 -0
 0 0 0
 2146.690087 2146.690039 477454.3483
 1735.475527 2242.887767 477455.5779
 1017.059851 2484.825841 477456.4509
 346.1099801 2566.631011 477456.976
 -346.1099779 2566.630898 477456.976
 -1017.059841 2484.825931 477456.4509
 -1735.475527 2242.887723 477455.5779
 -2146.69008 2146.690054 477454.3483
 0 0 -0
 0 0 0
 2242.887777 1735.475513 477455.5779
 1821.56959 1821.569484 477457.0505
 1149.353921 1940.934516 477458.6716
 392.5875793 2002.23442 477459.6404
 -392.5875698 2002.234599 477459.6404
 -1149.353927 1940.934364 477458.6716
 -1821.569572 1821.569586 477457.0505
 -2242.887778 1735.475471 477455.5779
 0 0 -0
 2891.489576 713.1019501 477454.7121
 2484.825946 1017.059766 477456.4509
 1940.934449 1149.353969 477458.6716
 1230.635915 1230.635743 477460.8281
 421.250756 1270.373547 477462.1241
 -421.2507579 1270.373324 477462.1241
 -1230.635893 1230.635938 477460.8281
 -1940.934464 1149.353826 477458.6716
 -2484.825927 1017.059846 477456.4509
 -2891.489575 713.1019309 477454.7121
 2910.195212 276.4564565 477455.0509
 2566.630964 346.109992 477456.976
 2002.234596 392.5874461 477459.6404
 1270.373421 421.2508526 477462.1241
 435.1010455 435.1008331 477463.6035
 -435.1010328 435.1010684 477463.6035
 -1270.373436 421.2506448 477462.1241
 -2002.234568 392.587604 477459.6404
 -2566.630977 346.1098969 477456.976
 -2910.195201 276.4564864 477455.0509
 2910.19519 -276.4565318 477455.0509
 2566.631031 -346.1100638 477456.976
 2002.234492 -392.5875265 477459.6404
 1270.373547 -421.2509202 477462.1241
 435.1009176 -435.1009171 477463.6035
 -435.1009206 -435.1011349 477463.6035
 -1270.373522 -421.2507275 477462.1241
 -2002.234511 -392.5876736 477459.6404
 -2566.631008 -346.1099746 477456.976
 -2910.195192 -276.4565601 477455.0509
 2891.48959 -713.102023 477454.7121
 2484.825893 -1017.059848 477456.4509
 1940.934538 -1149.354031 477458.6716
 1230.635806 -1230.635838 477460.8281
 421.2508689 -1270.3736 477462.1241
 -421.2508574 -1270.373422 477462.1241
 -1230.635818 -1230.635994 477460.8281
 -1940.934514 -1149.353915 477458.6716
 -2484.825902 -1017.059914 477456.4509
 -2891.489581 -713.1020066 477454.7121
 0 0 0
 2242.887804 -1735.475583 477455.5779
 1821.569531 -1821.569573 477457.0505
 1149.354002 -1940.934569 477458.6716
 392.5874939 -2002.234522 477459.6404
 -392.5874939 -2002.234648 477459.6404
 -1149.353985 -1940.934461 477458.6716
 -1821.569539 -1821.569647 477457.0505
 -2242.887792 -1735.475552 477455.5779
 0 0 -0
 0 0 0
 2146.69008 -2146.690116 477454.3483
 1735.475552 -2242.887834 477455.5779
 1017.059807 -2484.825933 477456.4509
 346.1100317 -2566.631066 477456.976
 -346.1100243 -2566.630994 477456.976
 -1017.059808 -2484.82599 477456.4509
 -1735.475543 -2242.887805 477455.5779
 -2146.690077 -2146.690126 477454.3483
 0 0 -0
 0 0 0
 0 0 0
 0 0 0
 713.1019901 -2891.489624 477454.7121
 276.4564956 -2910.195226 477455.0509
 -276.4564915 -2910.195248 477455.0509
 -713.1019842 -2891.48961 477454.7121
 0 0 -0
 0 0 -0
 0 0 -0
 0 0 0
 0 0 0
 0 0 0
 403.4541459 1636.918081 477461.0236
 156.3921046 1647.240997 477461.1329
 -156.3921024 1647.240961 477461.1329
 -403.4541418 1636.918103 477461.0236
 0 0 -0
 0 0 -0
 0 0 -0
 0 0 0
 1215.449232 1215.449202 477460.9059
 982.1309563 1269.22504 477461.3029
 575.2715715 1405.779938 477461.5839
 195.7101705 1451.755874 477461.7528
 -195.7101651 1451.755984 477461.7528
 -575.2715743 1405.77985 477461.5839
 -982.1309489 1269.225083 477461.3029
 -1215.449231 1215.449187 477460.9059
 0 0 -0
 0 0 0
 1269.225104 982.1308971 477461.3029
 1030.258239 1030.258255 477461.7769