# OOMMF OVF 2.0
#
# Segment count: 1
#
# Begin: Segment
# Begin: Header
#
# Title: Oxs_MinDriver::Magnetization
# Desc: Oxs vector field output
# Desc:  MIF source file: F:/Bogdan/UNIC/2022/Master_degree/Samples/Cylinder0_5000 1.mif
# Desc:  Iteration: 993, State id: 2158
# Desc:  Stage: 5, Stage iteration: 44
# Desc:  Stage simulation time: 0 s
# Desc:  Total simulation time: -2 s
# meshunit: m
# meshtype: rectangular
# xbase: -8.9999999999999995e-09
# ybase: -8.9999999999999995e-09
# zbase: -2.0999999999999999e-08
# xnodes: 10
# ynodes: 10
# znodes: 22
# xstepsize: 2.0000000000000001e-09
# ystepsize: 2.0000000000000001e-09
# zstepsize: 2.0000000000000001e-09
# xmin: -1e-08
# ymin: -1e-08
# zmin: -2.1999999999999998e-08
# xmax: 1e-08
# ymax: 1e-08
# zmax: 2.2000000000000005e-08
# valuedim: 3
# valuelabels: Magnetization_x Magnetization_y Magnetization_z
# valueunits: A/m A/m A/m
#
# End: Header
#
# Begin: Data Text
 0 0 0
 0 0 0
 0 0 0
 8010.188558 30094.79055 476447.2812
 3012.900264 30302.62588 476491.9145
 -3012.900233 30302.62588 476491.9145
 -8010.188527 30094.79054 476447.2812
 0 0 -0
 0 0 -0
 0 0 -0
 0 0 0
 22358.37426 22358.37384 476415.8661
 17757.15557 23299.54985 476564.4612
 10515.60312 25268.48231 476678.9246
 3553.709872 25794.02725 476753.5114
 -3553.709841 25794.02725 476753.5114
 -10515.60309 25268.48232 476678.9246
 -17757.15554 23299.54985 476564.4612
 -22358.37423 22358.37384 476415.8661
 0 0 -0
 0 0 0
 23299.55027 17757.15515 476564.4612
 18311.11611 18311.11568 476761.2373
 11343.48201 19071.86366 476948.0692
 3834.736288 19404.3423 477054.1244
 -3834.736256 19404.34231 477054.1244
 -11343.48198 19071.86365 476948.0692
 -18311.11608 18311.11569 476761.2373
 -23299.55024 17757.15515 476564.4612
 0 0 -0
 30094.79096 8010.188139 476447.2812
 25268.48274 10515.60269 476678.9246
 19071.86408 11343.48159 476948.0692
 11789.96526 11789.96482 477172.7829
 3983.212686 11985.79195 477296.9161
 -3983.212654 11985.79194 477296.9161
 -11789.96523 11789.96483 477172.7829
 -19071.86405 11343.48158 476948.0692
 -25268.48271 10515.6027 476678.9246
 -30094.79093 8010.188138 476447.2812
 30302.6263 3012.89984 476491.9145
 25794.02767 3553.709448 476753.5113
 19404.34274 3834.735853 477054.1244
 11985.79237 3983.212258 477296.9161
 4048.309596 4048.309154 477429.6741
 -4048.309564 4048.309161 477429.6741
 -11985.79234 3983.212252 477296.9161
 -19404.34271 3834.735858 477054.1244
 -25794.02764 3553.709445 476753.5113
 -30302.62627 3012.899841 476491.9145
 30302.6263 -3012.900656 476491.9145
 25794.02768 -3553.71027 476753.5113
 19404.34273 -3834.736684 477054.1244
 11985.79238 -3983.213092 477296.9161
 4048.309589 -4048.309994 477429.6741
 -4048.309557 -4048.309998 477429.6741
 -11985.79235 -3983.213089 477296.9161
 -19404.3427 -3834.736686 477054.1244
 -25794.02765 -3553.710268 476753.5113
 -30302.62627 -3012.900656 476491.9145
 30094.79097 -8010.18895 476447.2812
 25268.48274 -10515.60351 476678.9246
 19071.86409 -11343.48241 476948.0692
 11789.96525 -11789.96565 477172.7829
 3983.212693 -11985.79278 477296.9161
 -3983.212661 -11985.79278 477296.9161
 -11789.96522 -11789.96566 477172.7829
 -19071.86405 -11343.48241 476948.0692
 -25268.48271 -10515.60352 476678.9246
 -30094.79094 -8010.188949 476447.2812
 0 0 0
 23299.55028 -17757.15597 476564.4612
 18311.11611 -18311.1165 476761.2372
 11343.48202 -19071.86448 476948.0692
 3834.736283 -19404.34314 477054.1244
 -3834.736251 -19404.34314 477054.1244
 -11343.48198 -19071.86448 476948.0692
 -18311.11608 -18311.1165 476761.2372
 -23299.55025 -17757.15597 476564.4612
 0 0 -0
 0 0 0
 22358.37426 -22358.37465 476415.8661
 17757.15558 -23299.55067 476564.4612
 10515.60312 -25268.48313 476678.9246
 3553.709876 -25794.02807 476753.5113
 -3553.709844 -25794.02807 476753.5113
 -10515.60309 -25268.48313 476678.9246
 -17757.15555 -23299.55067 476564.4612
 -22358.37423 -22358.37465 476415.8661
 0 0 -0
 0 0 0
 0 0 0
 0 0 0
 8010.188561 -30094.79136 476447.2811
 3012.900264 -30302.62669 476491.9145
 -3012.900233 -30302.62669 476491.9145
 -8010.18853 -30094.79136 476447.2811
 0 0 -0
 0 0 -0
 0 0 -0
 0 0 0
 0 0 0
 0 0 0
 6677.52546 25916.46459 476713.3508
 2570.071249 26109.79044 476742.6401
 -2570.071219 26109.79043 476742.6401
 -6677.52543 25916.46459 476713.3508
 0 0 -0
 0 0 -0
 0 0 -0
 0 0 0
 19217.99723 19217.99683 476689.8452
 15475.88602 20106.70586 476789.3546
 9142.210778 22100.77921 476864.6001
 3109.562404 22707.6211 476913.5832
 -3109.562374 22707.62111 476913.5832
 -9142.210748 22100.7792 476864.6001
 -15475.88599 20106.70586 476789.3546
 -19217.9972 19217.99683 476689.8452
 0 0 -0
 0 0 0
 20106.70627 15475.88561 476789.3546
 16118.88356 16118.88315 476919.5262
 10074.76617 16958.24472 477056.3786
 3421.258742 17347.61312 477136.4863
 -3421.258712 17347.6131 477136.4863
 -10074.76614 16958.24473 477056.3786
 -16118.88353 16118.88314 476919.5262
 -20106.70624 15475.88561 476789.3546
 0 0 -0
 25916.465 6677.525051 476713.3508
 22100.77962 9142.210368 476864.6001
 16958.24514 10074.76574 477056.3785
 10583.56934 10583.56893 477229.3447
 3590.843623 10810.77703 477328.0887
 -3590.843593 10810.77705 477328.0887
 -10583.56931 10583.56891 477229.3447
 -16958.24511 10074.76576 477056.3785
 -22100.77959 9142.210361 476864.6001
 -25916.46497 6677.525052 476713.3508
 26109.79085 2570.070839 476742.6401
 22707.62152 3109.561987 476913.5832
 17347.61352 3421.258329 477136.4863
 10810.77747 3590.843194 477328.0887
 3665.993607 3665.993194 477435.8515
 -3665.993577 3665.993177 477435.8515
 -10810.77743 3590.84321 477328.0887
 -17347.6135 3421.258317 477136.4863
 -22707.62149 3109.561994 476913.5832
 -26109.79082 2570.070837 476742.6401
 26109.79085 -2570.071632 476742.6401
 22707.62152 -3109.562788 476913.5832
 17347.61353 -3421.259134 477136.4863
 10810.77746 -3590.844009 477328.0887
 3665.993613 -3665.994006 477435.8515
 -3665.993581 -3665.993996 477435.8515
 -10810.77743 -3590.844019 477328.0887
 -17347.6135 -3421.259126 477136.4863
 -22707.62149 -3109.562793 476913.5832
 -26109.79082 -2570.071631 476742.6401
 25916.465 -6677.525841 476713.3508
 22100.77962 -9142.211163 476864.6001
 16958.24514 -10074.76655 477056.3785
 10583.56935 -10583.56973 477229.3447
 3590.843618 -10810.77785 477328.0887
 -3590.843589 -10810.77786 477328.0887
 -10583.56931 -10583.56973 477229.3447
 -16958.24511 -10074.76655 477056.3785
 -22100.77959 -9142.211161 476864.6001
 -25916.46497 -6677.525842 476713.3508
 0 0 0
 20106.70627 -15475.88641 476789.3545
 16118.88357 -16118.88395 476919.5262
 10074.76616 -16958.24553 477056.3785
 3421.258747 -17347.61391 477136.4863
 -3421.258715 -17347.61391 477136.4863
 -10074.76613 -16958.24553 477056.3785
 -16118.88353 -16118.88395 476919.5262
 -20106.70624 -15475.88641 476789.3545
 0 0 -0
 0 0 0
 19217.99724 -19217.99762 476689.8451
 15475.88602 -20106.70665 476789.3545
 9142.210782 -22100.78 476864.6001
 3109.562403 -22707.6219 476913.5832
 -3109.562373 -22707.6219 476913.5832
 -9142.210751 -22100.78 476864.6001
 -15475.88599 -20106.70665 476789.3545
 -19217.99721 -19217.99762 476689.8451
 0 0 -0
 0 0 0
 0 0 0
 0 0 0
 6677.525462 -25916.46538 476713.3507
 2570.071251 -26109.79123 476742.64
 -2570.071221 -26109.79123 476742.64
 -6677.525433 -25916.46538 476713.3507
 0 0 -0
 0 0 -0
 0 0 -0
 0 0 0
 0 0 0
 0 0 0
 5293.642065 20944.14316 476975.0429
 2050.514963 21107.64731 476992.8028
 -2050.514936 21107.64732 476992.8028
 -5293.642037 20944.14316 476975.0429
 0 0 -0
 0 0 -0
 0 0 -0
 0 0 0
 15524.29439 15524.29401 476958.975
 12571.39136 16278.37127 477020.8025
 7415.673389 18001.07838 477066.9138
 2527.98158 18567.57086 477096.1391
 -2527.981552 18567.57084 477096.1391
 -7415.673361 18001.07839 477066.9138
 -12571.39134 16278.37126 477020.8025
 -15524.29437 15524.29401 476958.975
 0 0 -0
 0 0 0
 16278.37166 12571.39097 477020.8025
 13181.23542 13181.23503 477099.97
 8295.014261 13978.00378 477187.2583
 2827.556329 14367.19719 477239.4157
 -2827.5563 14367.19722 477239.4157
 -8295.014233 13978.00376 477187.2583
 -13181.23539 13181.23505 477099.97
 -16278.37163 12571.39096 477020.8025
 0 0 -0
 20944.14356 5293.641673 476975.0429
 18001.07877 7415.672999 477066.9138
 13978.00418 8295.013856 477187.2583
 8801.390832 8801.390437 477301.7309
 2999.581368 9035.961786 477369.066
 -2999.581341 9035.961758 477369.066
 -8801.390802 8801.390463 477301.7309
 -13978.00416 8295.013838 477187.2583
 -18001.07874 7415.673009 477066.9138
 -20944.14353 5293.64167 476975.0429
 21107.6477 2050.514572 476992.8028
 18567.57125 2527.981176 477096.1391
 14367.19759 2827.55594 477239.4157
 9035.962193 2999.580953 477369.066
 3078.211283 3078.21089 477444.1544
 -3078.211253 3078.210912 477444.1544
 -9035.962168 2999.580934 477369.066
 -14367.19756 2827.555955 477239.4157
 -18567.57123 2527.981167 477096.1391
 -21107.64768 2050.514575 476992.8028
 21107.64771 -2050.515334 476992.8028
 18567.57124 -2527.98194 477096.1391
 14367.19762 -2827.556715 477239.4157
 9035.962159 -2999.581725 477369.066
 3078.211324 -3078.211675 477444.1544
 -3078.211297 -3078.211686 477444.1544
 -9035.962127 -2999.581715 477369.066
 -14367.19759 -2827.556723 477239.4157
 -18567.57121 -2527.981935 477096.1391
 -21107.64768 -2050.515335 476992.8028
 20944.14356 -5293.64243 476975.0428
 18001.07879 -7415.673768 477066.9138
 13978.00416 -8295.014617 477187.2582
 8801.390863 -8801.391223 477301.7309
 2999.581332 -9035.962549 477369.066
 -2999.581302 -9035.962548 477369.066
 -8801.390838 -8801.391224 477301.7309
 -13978.00413 -8295.014616 477187.2582
 -18001.07876 -7415.673768 477066.9138
 -20944.14353 -5293.642429 476975.0428
 0 0 0
 16278.37166 -12571.39173 477020.8025
 13181.23544 -13181.23581 477099.97
 8295.01424 -13978.00454 477187.2582
 2827.556357 -14367.19798 477239.4156
 -2827.55633 -14367.19797 477239.4156
 -8295.014209 -13978.00454 477187.2582
 -13181.23542 -13181.2358 477099.97
 -16278.37163 -12571.39173 477020.8025
 0 0 -0
 0 0 0
 15524.29441 -15524.29477 476958.975
 12571.39136 -16278.37202 477020.8025
 7415.673404 -18001.07915 477066.9138
 2527.981564 -18567.57161 477096.139
 -2527.981535 -18567.57162 477096.139
 -7415.673378 -18001.07915 477066.9138
 -12571.39133 -16278.37202 477020.8025
 -15524.29438 -15524.29477 476958.975
 0 0 -0
 0 0 0
 0 0 0
 0 0 0
 5293.642065 -20944.14392 476975.0428
 2050.51497 -21107.64807 476992.8028
 -2050.514943 -21107.64807 476992.8028
 -5293.642037 -20944.14392 476975.0428
 0 0 -0
 0 0 -0
 0 0 -0
 0 0 0
 0 0 0
 0 0 0
 4078.151689 16312.92581 477167.82
 1581.941539 16440.39936 477178.2497
 -1581.941514 16440.39936 477178.2497
 -4078.151664 16312.92581 477167.82
 0 0 -0
 0 0 -0
 0 0 -0
 0 0 0
 12092.53745 12092.53708 477157.6389
 9807.823463 12686.48339 477194.6469
 5777.721767 14061.75905 477221.915
 1970.358256 14529.354 477238.8153
 -1970.35823 14529.35402 477238.8153
 -5777.721742 14061.75903 477221.915
 -9807.823437 12686.4834 477194.6469
 -12092.53743 12092.53708 477157.6389
 0 0 -0
 0 0 0
 12686.48375 9807.8231 477194.6469
 10314.88061 10314.88022 477241.1107
 6513.805456 10985.41966 477293.1617
 2225.110731 11322.92321 477324.5349
 -2225.110706 11322.92318 477324.5349
 -6513.805429 10985.41968 477293.1617
 -10314.88059 10314.8802 477241.1107
 -12686.48373 9807.823106 477194.6469
 0 0 -0
 16312.92618 4078.151325 477167.82
 14061.75944 5777.72137 477221.915
 10985.42 6513.805118 477293.1617
 6954.811164 6954.810736 477362.6844
 2377.476349 7165.050973 477404.316
 -2377.476322 7165.050999 477404.316
 -6954.811141 6954.810713 477362.6845
 -10985.41997 6513.805135 477293.1617
 -14061.75942 5777.72136 477221.915
 -16312.92615 4078.151327 477167.82
 16440.39974 1581.941156 477178.2497
 14529.35436 1970.357912 477238.8153
 11322.92362 2225.110302 477324.5349
 7165.051301 2377.476031 477404.316
 2449.075705 2449.075257 477451.4377
 -2449.075681 2449.07524 477451.4377
 -7165.051272 2377.476046 477404.316
 -11322.9236 2225.110291 477324.5349
 -14529.35433 1970.357918 477238.8153
 -16440.39972 1581.941154 477178.2497
 16440.39973 -1581.941878 477178.2497
 14529.35442 -1970.358642 477238.8153
 11322.92353 -2225.11103 477324.5349
 7165.051427 -2377.476773 477404.316
 2449.07556 -2449.075987 477451.4377
 -2449.075533 -2449.075985 477451.4377
 -7165.051406 -2377.476775 477404.316
 -11322.9235 -2225.111028 477324.5349
 -14529.3544 -1970.358643 477238.8153
 -16440.3997 -1581.941878 477178.2497
 16312.92619 -4078.152046 477167.82
 14061.7594 -5777.72209 477221.915
 10985.42008 -6513.805859 477293.1617
 6954.811055 -6954.811454 477362.6844
 2377.476478 -7165.051726 477404.316
 -2377.476454 -7165.051717 477404.316
 -6954.811025 -6954.811463 477362.6844
 -10985.42006 -6513.805853 477293.1617
 -14061.75937 -5777.722092 477221.915
 -16312.92617 -4078.152046 477167.82
 0 0 0
 12686.48378 -9807.823832 477194.6469
 10314.88056 -10314.88093 477241.1107
 6513.80554 -10985.4204 477293.1617
 2225.110634 -11322.92392 477324.5349
 -2225.110607 -11322.92393 477324.5349
 -6513.805518 -10985.42039 477293.1617
 -10314.88054 -10314.88094 477241.1107
 -12686.48376 -9807.823829 477194.6469
 0 0 -0
 0 0 0
 12092.53746 -12092.5378 477157.6389
 9807.823492 -12686.48412 477194.6469
 5777.721723 -14061.75976 477221.915
 1970.358316 -14529.35475 477238.8153
 -1970.358292 -14529.35474 477238.8153
 -5777.721696 -14061.75977 477221.915
 -9807.823468 -12686.48412 477194.6469
 -12092.53743 -12092.5378 477157.6389
 0 0 -0
 0 0 0
 0 0 0
 0 0 0
 4078.151705 -16312.92654 477167.82
 1581.941522 -16440.40008 477178.2497
 -1581.941497 -16440.40009 477178.2497
 -4078.15168 -16312.92653 477167.82
 0 0 -0
 0 0 -0
 0 0 -0
 0 0 0
 0 0 0
 0 0 0
 3075.341395 12383.3254 477293.4808
 1193.214185 12477.41873 477299.4464
 -1193.214163 12477.41874 477299.4464
 -3075.341372 12383.3254 477293.4808
 0 0 -0
 0 0 -0
 0 0 -0
 0 0 0
 9181.690129 9181.68979 477287.4023
 7446.488678 9628.174609 477308.8302
 4380.507638 10679.63154 477324.4472
 1493.4386 11041.01141 477333.9889
 -1493.438578 11041.01139 477333.9889
 -4380.507614 10679.63156 477324.4472
 -7446.488656 9628.174604 477308.8302
 -9181.690106 9181.689791 477287.4023
 0 0 -0
 0 0 0
 9628.174982 7446.488302 477308.8302
 7837.951249 7837.950953 477335.3165
 4955.621469 8362.323862 477365.0434
 1694.28521 8630.245524 477382.9904
 -1694.285186 8630.245543 477382.9904
 -4955.621449 8362.323846 477365.0434
 -7837.951224 7837.950964 477335.3165
 -9628.174961 7446.488298 477308.8302
 0 0 -0
 12383.32577 3075.341032 477293.4808
 10679.63185 4380.507336 477324.4472
 8362.324298 4955.621026 477365.0434
 5307.500307 5307.500064 477404.9981
 1817.18581 5478.091808 477429.1148
 -1817.185788 5478.091795 477429.1148
 -5307.50028 5307.500076 477404.9981
 -8362.32428 4955.621018 477365.0434
 -10679.63183 4380.50734 477324.4472
 -12383.32574 3075.341031 477293.4808
 12477.41907 1193.213855 477299.4464
 11041.01181 1493.438178 477333.9889
 8630.245791 1694.284963 477382.9904
 5478.092292 1817.185313 477429.1148
 1875.956211 1875.956003 477456.6293
 -1875.956186 1875.956003 477456.6293
 -5478.092274 1817.185312 477429.1148
 -8630.245762 1694.284963 477382.9904
 -11041.0118 1493.438178 477333.9889
 -12477.41904 1193.213854 477299.4464
 12477.41911 -1193.21454 477299.4464
 11041.0117 -1493.438862 477333.9889
 8630.245987 -1694.285659 477382.9904
 5478.092034 -1817.185999 477429.1148
 1875.956507 -1875.956706 477456.6293
 -1875.956486 -1875.95669 477456.6293
 -5478.092006 -1817.186014 477429.1148
 -8630.24597 -1694.285648 477382.9904
 -11041.01167 -1493.438869 477333.9889
 -12477.41909 -1193.214538 477299.4464
 12383.32575 -3075.341713 477293.4808
 10679.63195 -4380.508029 477324.4472
 8362.324134 -4955.621704 477365.0434
 5307.500535 -5307.500775 477404.9981
 1817.185548 -5478.092482 477429.1148
 -1817.185524 -5478.09251 477429.1148
 -5307.500516 -5307.500751 477404.9981
 -8362.324106 -4955.621721 477365.0434
 -10679.63193 -4380.50802 477324.4472
 -12383.32572 -3075.341715 477293.4808
 0 0 0
 9628.174943 -7446.488985 477308.8302
 7837.951368 -7837.951655 477335.3164
 4955.621304 -8362.324533 477365.0434
 1694.28541 -8630.24624 477382.9904
 -1694.285389 -8630.246211 477382.9904
 -4955.621278 -8362.324557 477365.0434
 -7837.951349 -7837.951639 477335.3164
 -9628.174919 -7446.488992 477308.8302
 0 0 -0
 0 0 0
 9181.690158 -9181.690478 477287.4023
 7446.488638 -9628.175288 477308.8302
 4380.507736 -10679.63225 477324.4472
 1493.43848 -11041.01208 477333.9889
 -1493.438457 -11041.0121 477333.9889
 -4380.507715 -10679.63223 477324.4472
 -7446.488614 -9628.175296 477308.8302
 -9181.690136 -9181.690475 477287.4023
 0 0 -0
 0 0 0
 0 0 0
 0 0 0
 3075.341376 -12383.32609 477293.4808
 1193.214225 -12477.41942 477299.4464
 -1193.214203 -12477.41942 477299.4464
 -3075.341353 -12383.32609 477293.4808
 0 0 -0
 0 0 -0
 0 0 -0
 0 0 0
 0 0 0
 0 0 0
 2274.959923 9199.14706 477369.9525
 882.6020348 9266.17552 477373.261
 -882.6020157 9266.175518 477373.261
 -2274.959903 9199.147061 477369.9525
 0 0 -0
 0 0 -0
 0 0 -0
 0 0 0
 6822.551996 6822.551654 477366.5016
 5529.403789 7147.873087 477378.4713
 3248.297804 7928.682667 477387.1132
 1106.854064 8197.058861 477392.3485
 -1106.854044 8197.058866 477392.3485
 -3248.297786 7928.682663 477387.1132
 -5529.403769 7147.873089 477378.4713
 -6822.551977 6822.551654 477366.5016
 0 0 -0
 0 0 0
 7147.873379 5529.403498 477378.4713
 5818.362878 5818.36245 477393.0923
 3678.60732 6209.947746 477409.4424
 1257.810095 6411.276879 477419.2966
 -1257.810077 6411.276877 477419.2966
 -3678.607298 6209.947748 477409.4424
 -5818.362862 5818.36245 477393.0923
 -7147.873358 5529.403498 477378.4713
 0 0 -0
 9199.147377 2274.959614 477369.9525
 7928.683076 3248.297388 477387.1132
 6209.947945 3678.60713 477409.4424
 3944.111531 3944.111005 477431.4184
 1351.103859 4073.849476 477444.7084
 -1351.103837 4073.849468 477444.7084
 -3944.111516 3944.111012 477431.4184
 -6209.947921 3678.607125 477409.4424
 -7928.683061 3248.297392 477387.1132
 -9199.147356 2274.959612 477369.9525
 9266.175884 882.6016679 477373.261
 8197.059105 1106.853838 477392.3485
 6411.27737 1257.809584 477419.2966
 4073.849603 1351.103747 477444.7084
 1396.10958 1396.108995 477459.9177
 -1396.109562 1396.10902 477459.9177
 -4073.849578 1351.103725 477444.7084
 -6411.277357 1257.809601 477419.2966
 -8197.059081 1106.853827 477392.3485
 -9266.175866 882.6016714 477373.261
 9266.175827 -882.6023143 477373.261
 8197.059291 -1106.854491 477392.3485
 6411.277064 -1257.810231 477419.2966
 4073.850009 -1351.10441 477444.7084
 1396.109118 -1396.109642 477459.9177
 -1396.109097 -1396.109685 477459.9177
 -4073.849994 -1351.104372 477444.7084
 -6411.277039 -1257.810259 477419.2966
 -8197.059276 -1106.854474 477392.3485
 -9266.175807 -882.6023195 477373.261
 9199.147417 -2274.96026 477369.9525
 7928.682933 -3248.29803 477387.1132
 6209.948209 -3678.607796 477409.4424
 3944.111178 -3944.11164 477431.4184
 1351.104267 -4073.850153 477444.7084
 -1351.104249 -4073.850102 477444.7084
 -3944.111154 -3944.111686 477431.4184
 -6209.948194 -3678.607763 477409.4424
 -7928.68291 -3248.298048 477387.1132
 -9199.147399 -2274.960256 477369.9525
 0 0 0
 7147.873461 -5529.404155 477378.4713
 5818.362706 -5818.363088 477393.0923
 3678.607586 -6209.948421 477409.4424
 1257.809785 -6411.277508 477419.2966
 -1257.809765 -6411.277556 477419.2966
 -3678.60757 -6209.94838 477409.4424
 -5818.362683 -5818.363115 477393.0923
 -7147.873443 -5529.404144 477378.4713
 0 0 -0
 0 0 0
 6822.551984 -6822.552302 477366.5016
 5529.403871 -7147.873744 477378.4713
 3248.297659 -7928.683305 477387.1132
 1106.854253 -8197.059533 477392.3485
 -1106.854234 -8197.0595 477392.3485
 -3248.297638 -7928.683331 477387.1132
 -5529.403853 -7147.873731 477378.4713
 -6822.551964 -6822.552306 477366.5016
 0 0 -0
 0 0 0
 0 0 0
 0 0 0
 2274.959964 -9199.147719 477369.9525
 882.6019772 -9266.176167 477373.261
 -882.6019577 -9266.176178 477373.261
 -2274.959945 -9199.147712 477369.9525
 0 0 -0
 0 0 -0
 0 0 -0
 0 0 0
 0 0 0
 0 0 0
 1646.034877 6674.339274 477414.5107
 638.4970135 6720.80718 477416.2695
 -638.4969974 6720.807178 477416.2695
 -1646.034862 6674.339276 477414.5107
 0 0 -0
 0 0 -0
 0 0 -0
 0 0 0
 4951.284963 4951.284672 477412.6526
 4009.358099 5182.155937 477419.0419
 2352.443351 5746.761229 477423.6191
 801.1343711 5939.942035 477426.3782
 -801.1343558 5939.942043 477426.3782
 -2352.443334 5746.761222 477423.6191
 -4009.358084 5182.155941 477419.0419
 -4951.284947 4951.28467 477412.6526
 0 0 -0
 0 0 0
 5182.156302 4009.357731 477419.0419
 4215.652924 4215.652739 477426.7775
 2663.723054 4498.018784 477435.3817
 910.544033 4643.417235 477440.5522
 -910.5440157 4643.417216 477440.5522
 -2663.723041 4498.0188 477435.3817
 -4215.652905 4215.652728 477426.7775
 -5182.156288 4009.357736 477419.0419
 0 0 -0
 6674.339616 1646.034538 477414.5107
 5746.761442 2352.443149 477423.6191
 4498.019286 2663.722544 477435.3817
 2856.037514 2856.037453 477446.9158
 978.320292 2950.244531 477453.8828
 -978.3202776 2950.244566 477453.8828
 -2856.037493 2856.037422 477446.9158
 -4498.019275 2663.722567 477435.3817
 -5746.761422 2352.443135 477423.6191
 -6674.339601 1646.034542 477414.5107
 6720.807458 638.4967454 477416.2695
 5939.942479 801.1339117 477426.3782
 4643.417341 910.543951 477440.5522
 2950.245134 978.3196725 477453.8828
 1011.114841 1011.114854 477461.8588
 -1011.114823 1011.114799 477461.8588
 -2950.245123 978.3197214 477453.8828
 -4643.417319 910.5439134 477440.5522
 -5939.942468 801.1339346 477426.3782
 -6720.80744 638.496738 477416.2695
 6720.807536 -638.4973603 477416.2695
 5939.94224 -801.1345247 477426.3782
 4643.417741 -910.544575 477440.5522
 2950.244608 -978.3202855 477453.8828
 1011.115441 -1011.115484 477461.8588
 -1011.115426 -1011.115412 477461.8588
 -2950.244587 -978.3203491 477453.8828
 -4643.417731 -910.5445265 477440.5522
 -5939.942219 -801.1345538 477426.3782
 -6720.807521 -638.4973512 477416.2695
 6674.339574 -1646.035149 477414.5107
 5746.761638 -2352.443772 477423.6191
 4498.018948 -2663.723149 477435.3817
 2856.037977 -2856.038091 477446.9158
 978.3197626 -2950.245131 477453.8828
 -978.319745 -2950.245208 477453.8828
 -2856.037964 -2856.038024 477446.9158
 -4498.018928 -2663.723199 477435.3817
 -5746.761625 -2352.443744 477423.6191
 -6674.339557 -1646.035155 477414.5107
 0 0 0
 5182.156215 -4009.358345 477419.0419
 4215.653162 -4215.653371 477426.7775
 2663.722715 -4498.019383 477435.3817
 910.5444378 -4643.41788 477440.5522
 -910.5444227 -4643.417813 477440.5522
 -2663.722697 -4498.01944 477435.3817
 -4215.653149 -4215.653333 477426.7775
 -5182.156197 -4009.35836 477419.0419
 0 0 -0
 0 0 0
 4951.28501 -4951.285292 477412.6526
 4009.358011 -5182.156548 477419.0419
 2352.443549 -5746.761863 477423.6191
 801.1341285 -5939.942638 477426.3782
 -801.134112 -5939.942682 477426.3782
 -2352.443534 -5746.761828 477423.6191
 -4009.357994 -5182.156564 477419.0419
 -4951.284994 -4951.285285 477412.6526
 0 0 -0
 0 0 0
 0 0 0
 0 0 0
 1646.034835 -6674.339893 477414.5107
 638.4970925 -6720.807807 477416.2695
 -638.4970767 -6720.807792 477416.2695
 -1646.034819 -6674.339902 477414.5107
 0 0 -0
 0 0 -0
 0 0 -0
 0 0 0
 0 0 0
 0 0 0
 1151.817998 4678.770284 477439.6859
 446.7105334 4709.989678 477440.5594
 -446.710521 4709.989684 477440.5594
 -1151.817985 4678.77028 477439.6859
 0 0 -0
 0 0 -0
 0 0 -0
 0 0 0
 3471.677079 3471.676763 477438.7565
 2808.904644 3630.17648 477441.937
 1646.416126 4024.320467 477444.2014
 560.4014288 4158.382372 477445.5624
 -560.4014157 4158.38235 477445.5624
 -1646.416115 4024.320485 477444.2014
 -2808.904631 3630.176471 477441.937
 -3471.677067 3471.676766 477438.7565
 0 0 -0
 0 0 0
 3630.176715 2808.90441 477441.937
 2950.871427 2950.870978 477445.7624
 1863.131319 3146.793212 477449.995
 636.6179435 3247.606715 477452.5307
 -636.6179319 3247.606756 477452.5307
 -1863.131304 3146.793177 477449.995
 -2950.871417 2950.871002 477445.7624
 -3630.176701 2808.904399 477441.937
 0 0 -0
 4678.770556 1151.817734 477439.6859
 4024.320888 1646.415699 477444.2014
 3146.793297 1863.131244 477449.995
 1996.751011 1996.750413 477455.6495
 683.7624628 2062.182052 477459.0571
 -683.7624488 2062.181989 477459.0571
 -1996.751002 1996.750469 477455.6495
 -3146.79328 1863.131203 477449.995
 -4024.320878 1646.415723 477444.2014
 -4678.770543 1151.817728 477439.6859
 4709.990027 446.7101823 477440.5594
 4158.382526 560.4012948 477445.5624
 3247.607264 636.617373 477452.5307
 2062.182024 683.7625077 477459.0571
 706.5747616 706.5740775 477462.9544
 -706.5747505 706.5741625 477462.9544
 -2062.182007 683.7624324 477459.0571
 -3247.607257 636.6174306 477452.5307
 -4158.38251 560.4012597 477445.5624
 -4709.990015 446.7101935 477440.5594
 4709.989943 -446.7107676 477440.5594
 4158.382797 -560.4018853 477445.5624
 3247.606819 -636.617958 477452.5307
 2062.182612 -683.7631055 477459.0571
 706.5740941 -706.5746624 477462.9544
 -706.5740799 -706.574762 477462.9544
 -2062.182603 -683.7630173 477459.0571
 -3247.606802 -636.6180252 477452.5307
 -4158.382788 -560.4018448 477445.5624
 -4709.989929 -446.7107803 477440.5594
 4678.770613 -1151.818319 477439.6859
 4024.320678 -1646.416281 477444.2014
 3146.79368 -1863.131846 477449.995
 1996.750499 -1996.750989 477455.6495
 683.7630536 -2062.182662 477459.0571
 -683.7630423 -2062.182562 477459.0571
 -1996.750483 -1996.751076 477455.6495
 -3146.793671 -1863.131781 477449.995
 -4024.320662 -1646.416317 477444.2014
 -4678.770601 -1151.818311 477439.6859
 0 0 0
 3630.17683 -2808.905005 477441.937
 2950.871174 -2950.871557 477445.7624
 1863.131704 -3146.793822 477449.995
 636.6174949 -3247.607286 477452.5307
 -636.6174814 -3247.60737 477452.5307
 -1863.131693 -3146.793751 477449.995
 -2950.871159 -2950.871605 477445.7624
 -3630.176819 -2808.904985 477441.937
 0 0 -0
 0 0 0
 3471.677056 -3471.677351 477438.7565
 2808.90476 -3630.177075 477441.937
 1646.415915 -4024.321047 477444.2014
 560.4017017 -4158.38298 477445.5624
 -560.4016896 -4158.382927 477445.5624
 -1646.415901 -4024.32109 477444.2014
 -2808.904748 -3630.177054 477441.937
 -3471.677043 -3471.677358 477438.7565
 0 0 -0
 0 0 0
 0 0 0
 0 0 0
 1151.818055 -4678.770882 477439.6859
 446.7104494 -4709.990266 477440.5594
 -446.7104368 -4709.990284 477440.5594
 -1151.818043 -4678.770872 477439.6859
 0 0 -0
 0 0 -0
 0 0 -0
 0 0 0
 0 0 0
 0 0 0
 756.6462545 3077.021254 477453.4854
 293.4044605 3096.843744 477453.8666
 -293.4044514 3096.843734 477453.8666
 -756.6462456 3077.02126 477453.4854
 0 0 -0
 0 0 -0
 0 0 -0
 0 0 0
 2283.587513 2283.587254 477453.0781
 1846.367864 2386.041839 477454.468
 1081.398317 2644.263185 477455.4532
 367.9279378 2731.610311 477456.0443
 -367.927929 2731.610346 477456.0443
 -1081.398307 2644.263157 477455.4532
 -1846.367856 2386.041853 477454.468
 -2283.587504 2283.587248 477453.0781
 0 0 -0
 0 0 0
 2386.042185 1846.367516 477454.468
 1938.199792 1938.199658 477456.1321
 1222.886228 2065.736383 477457.9652
 417.6868009 2131.265308 477459.0606
 -417.6867912 2131.265246 477459.0606
 -1222.88622 2065.736436 477457.9652
 -1938.199781 1938.199621 477456.1321
 -2386.042177 1846.367531 477454.468
 0 0 -0
 3077.021572 756.6459394 477453.4854
 2644.263351 1081.398162 477455.4532
 2065.736889 1222.885714 477457.9652
 1309.857356 1309.857366 477460.4066
 448.3812688 1352.384806 477461.8742
 -448.3812606 1352.384895 477461.8742
 -1309.857344 1309.857288 477460.4066
 -2065.736882 1222.885772 477457.9652
 -2644.26334 1081.398129 477455.4532
 -3077.021563 756.6459475 477453.4854
 3096.843987 293.4042279 477453.8666
 2731.610749 367.927485 477456.0443
 2131.265348 417.6867837 477459.0606
 1352.385426 448.3806335 477461.8742
 463.2133171 463.2134086 477463.5506
 -463.2133068 463.2132977 477463.5506
 -1352.38542 448.3807317 477461.8742
 -2131.265336 417.6867086 477459.0606
 -2731.610743 367.9275305 477456.0443
 -3096.843977 293.4042134 477453.8666
 3096.844071 -293.4047925 477453.8666
 2731.610493 -367.9280485 477456.0443
 2131.265777 -417.6873548 477459.0606
 1352.384864 -448.3811972 477461.8742
 463.2139558 -463.2139838 477463.5506
 -463.213948 -463.2138614 477463.5506
 -1352.384852 -448.3813055 477461.8742
 -2131.265771 -417.6872722 477459.0606
 -2731.61048 -367.9280983 477456.0443
 -3096.844063 -293.4047768 477453.8666
 3077.021527 -756.6465008 477453.4854
 2644.26356 -1081.398732 477455.4532
 2065.736528 -1222.886273 477457.9652
 1309.85785 -1309.857947 477460.4066
 448.380705 -1352.385362 477461.8742
 -448.3806947 -1352.385479 477461.8742
 -1309.857844 -1309.857844 477460.4066
 -2065.736515 -1222.886349 477457.9652
 -2644.263554 -1081.39869 477455.4532
 -3077.021517 -756.6465109 477453.4854
 0 0 0
 2386.042091 -1846.368081 477454.468
 1938.200045 -1938.200235 477456.1321
 1222.885866 -2065.736939 477457.9652
 417.6872317 -2131.265894 477459.0606
 -417.6872236 -2131.265799 477459.0606
 -1222.885855 -2065.73702 477457.9652
 -1938.200038 -1938.20018 477456.1321
 -2386.042081 -1846.368103 477454.468
 0 0 -0
 0 0 0
 2283.587562 -2283.587823 477453.0781
 1846.36777 -2386.042402 477454.468
 1081.398527 -2644.263765 477455.4531
 367.9276797 -2731.61087 477456.0443
 -367.9276701 -2731.61093 477456.0443
 -1081.398519 -2644.263717 477455.4531
 -1846.36776 -2386.042425 477454.468
 -2283.587554 -2283.587815 477453.0781
 0 0 -0
 0 0 0
 0 0 0
 0 0 0
 756.6462095 -3077.021825 477453.4854
 293.4045444 -3096.844321 477453.8666
 -293.4045355 -3096.844301 477453.8666
 -756.6462003 -3077.021837 477453.4854
 0 0 -0
 0 0 -0
 0 0 -0
 0 0 0
 0 0 0
 0 0 0
 428.4071213 1743.31985 477460.6252
 166.1036933 1754.27453 477460.7484
 -166.1036878 1754.274545 477460.7484
 -428.4071159 1743.319841 477460.6252
 0 0 -0
 0 0 -0
 0 0 -0
 0 0 0
 1293.958869 1293.958577 477460.4933
 1045.711379 1351.302027 477460.9427
 612.1470002 1497.185772 477461.2602
 208.2125619 1546.330407 477461.4506
 -208.2125565 1546.33036 477461.4506
 -612.1469946 1497.18581 477461.2602
 -1045.711373 1351.302008 477460.9427
 -1293.958863 1293.958583 477460.4933
 0 0 -0
 0 0 0
 1351.302247 1045.71116 477460.9427
 1097.110479 1097.11007 477461.4791