# OOMMF OVF 2.0
#
# Segment count: 1
#
# Begin: Segment
# Begin: Header
#
# Title: Oxs_MinDriver::Magnetization
# Desc: Oxs vector field output
# Desc:  MIF source file: F:/Bogdan/UNIC/2022/Master_degree/Samples/Cylinder11_7.mif
# Desc:  Iteration: 972, State id: 2182
# Desc:  Stage: 4, Stage iteration: 24
# Desc:  Stage simulation time: 0 s
# Desc:  Total simulation time: -2 s
# meshunit: m
# meshtype: rectangular
# xbase: -2.5000000000000001e-09
# ybase: -2.5000000000000001e-09
# zbase: -6.4999999999999995e-09
# xnodes: 6
# ynodes: 6
# znodes: 14
# xstepsize: 1.0000000000000001e-09
# ystepsize: 1.0000000000000001e-09
# zstepsize: 1.0000000000000001e-09
# xmin: -3e-09
# ymin: -3e-09
# zmin: -6.9999999999999998e-09
# xmax: 3.0000000000000008e-09
# ymax: 3.0000000000000008e-09
# zmax: 7.0000000000000015e-09
# valuedim: 3
# valuelabels: Magnetization_x Magnetization_y Magnetization_z
# valueunits: A/m A/m A/m
#
# End: Header
#
# Begin: Data Text
 0 0 0
 1994.582166 3767.220953 477444.9717
 754.8335301 3851.924129 477447.8654
 -754.835837 3851.924125 477447.8654
 -1994.584471 3767.220959 477444.9717
 0 0 -0
 3767.230884 1994.572236 477444.9716
 2461.670231 2461.660286 477451.3082
 859.5981323 2596.803155 477456.1645
 -859.6004422 2596.803169 477456.1645
 -2461.672535 2461.660279 477451.3082
 -3767.233188 1994.572241 477444.9716
 3851.934064 754.8235784 477447.8654
 2596.813117 859.5881666 477456.1644
 905.8903761 905.880415 477462.2813
 -905.8926849 905.8803986 477462.2813
 -2596.815427 859.588179 477456.1644
 -3851.936366 754.8235753 477447.8653
 3851.934077 -754.845802 477447.8653
 2596.813124 -859.6104081 477456.1644
 905.8903821 -905.9026648 477462.2812
 -905.8926937 -905.9026505 477462.2812
 -2596.815428 -859.6104192 477456.1644
 -3851.936381 -754.8457995 477447.8653
 3767.230918 -1994.594431 477444.9716
 2461.670251 -2461.682502 477451.3081
 859.5981374 -2596.825384 477456.1644
 -859.6004453 -2596.825393 477456.1644
 -2461.672559 -2461.682498 477451.3081
 -3767.23322 -1994.594435 477444.9715
 0 0 0
 1994.5822 -3767.243149 477444.9715
 754.833544 -3851.946317 477447.8653
 -754.8358515 -3851.946316 477447.8652
 -1994.584503 -3767.243153 477444.9715
 0 0 -0
 0 0 0
 1590.71273 3011.516204 477451.8528
 619.0148494 3082.304955 477453.6496
 -619.0170335 3082.304968 477453.6496
 -1590.714909 3011.5162 477451.8527
 0 0 -0
 3011.526134 1590.702801 477451.8527
 2010.828822 2010.818872 477455.5314
 714.8511957 2145.305135 477458.6453
 -714.8533779 2145.305101 477458.6453
 -2010.831008 2010.818898 477455.5314
 -3011.528312 1590.702797 477451.8527
 3082.314897 619.004896 477453.6495
 2145.315079 714.8412402 477458.6452
 760.6482243 760.6382389 477462.7882
 -760.6504139 760.6382843 477462.7882
 -2145.317254 714.8412085 477458.6452
 -3082.317079 619.0049081 477453.6495
 3082.314914 -619.0269986 477453.6495
 2145.315082 -714.8633537 477458.6452
 760.6482272 -760.660366 477462.7882
 -760.6504092 -760.6604062 477462.7882
 -2145.317272 -714.8633258 477458.6452
 -3082.31709 -619.0270098 477453.6495
 3011.526171 -1590.724873 477451.8527
 2010.828846 -2010.840969 477455.5313
 714.8512041 -2145.327231 477458.6452
 -714.8533915 -2145.327207 477458.6452
 -2010.831023 -2010.840988 477455.5313
 -3011.528353 -1590.724872 477451.8526
 0 0 0
 1590.712767 -3011.538281 477451.8526
 619.0148638 -3082.327026 477453.6495
 -619.0170463 -3082.327035 477453.6495
 -1590.714948 -3011.538279 477451.8526
 0 0 -0
 0 0 0
 1162.750207 2198.347013 477457.5233
 457.3729858 2249.327776 477458.4826
 -457.3749342 2249.327761 477458.4826
 -1162.752156 2198.347026 477457.5233
 0 0 -0
 2198.356983 1162.740243 477457.5233
 1481.344036 1481.334057 477459.4041
 531.9339355 1588.679066 477461.0607
 -531.93589 1588.679113 477461.0607
 -1481.345977 1481.334027 477459.4041
 -2198.358932 1162.740255 477457.5233
 2249.337749 457.3629976 477458.4826
 1588.689064 531.9239387 477461.0606
 569.463149 569.4531646 477463.3208
 -569.4650947 569.4531045 477463.3208
 -1588.691023 531.923982 477461.0606
 -2249.33969 457.362984 477458.4826
 2249.337757 -457.3849366 477458.4826
 1588.689092 -531.9458884 477461.0606
 569.4631349 -569.4751147 477463.3208
 -569.4650911 -569.4750607 477463.3208
 -1588.691031 -531.9459276 477461.0606
 -2249.339708 -457.3849245 477458.4826
 2198.357029 -1162.762159 477457.5232
 1481.344048 -1481.355984 477459.404
 531.933957 -1588.701007 477461.0606
 -531.9359043 -1588.701042 477461.0606
 -1481.346002 -1481.355962 477459.404
 -2198.358974 -1162.762168 477457.5232
 0 0 0
 1162.750252 -2198.368939 477457.5232
 457.3729979 -2249.349685 477458.4825
 -457.3749485 -2249.349675 477458.4825
 -1162.752198 -2198.368948 477457.5232
 0 0 -0
 0 0 0
 798.9987527 1508.978168 477460.947
 315.4611678 1542.484224 477461.4042
 -315.4627906 1542.484241 477461.4042
 -799.0003697 1508.978162 477460.947
 0 0 -0
 1508.988222 798.9887047 477460.947
 1019.632053 1019.621991 477461.8226
 367.5897263 1094.929534 477462.603
 -367.5913433 1094.92949 477462.603
 -1019.633682 1019.622024 477461.8226
 -1508.989838 798.9886989 477460.947
 1542.494285 315.4510985 477461.4042
 1094.939599 367.5796516 477462.603
 394.351247 394.3411571 477463.6743
 -394.3528749 394.3412161 477463.6743
 -1094.941208 367.5796105 477462.603
 -1542.495909 315.4511137 477461.4042
 1542.494313 -315.4728775 477461.4042
 1094.939583 -367.6014317 477462.603
 394.3512781 -394.3629441 477463.6743
 -394.3528951 -394.3629977 477463.6743
 -1094.941213 -367.6013944 477462.603
 -1542.495927 -315.4728917 477461.4042
 1508.988262 -799.0104601 477460.9469
 1019.632098 -1019.643765 477461.8225
 367.5897169 -1094.9513 477462.603
 -367.5913413 -1094.951266 477462.603
 -1019.633713 -1019.64379 477461.8225
 -1508.989883 -799.0104562 477460.9469
 0 0 0
 798.9987932 -1508.999936 477460.9469
 315.4611918 -1542.505981 477461.4042
 -315.4628123 -1542.505993 477461.4042
 -799.0004137 -1508.999933 477460.9469
 0 0 -0
 0 0 0
 510.5709037 963.8223187 477462.7542
 201.8284966 984.2331631 477462.9429
 -201.8297108 984.2331509 477462.9429
 -510.5721201 963.8223279 477462.7542
 0 0 -0
 963.832508 510.5607219 477462.7542
 651.5091662 651.4989732 477463.111
 235.1542741 699.4981263 477463.4297
 -235.1554943 699.4981626 477463.4297
 -651.510373 651.4989496 477463.111
 -963.8337254 510.5607306 477462.7542
 984.2433564 201.8182934 477462.9429
 699.5083373 235.1440597 477463.4297
 252.3264471 252.3162477 477463.8667
 -252.3276578 252.3162015 477463.8667
 -699.5095626 235.1440931 477463.4297
 -984.2445652 201.8182828 477462.9429
 984.243367 -201.8399351 477462.9429
 699.5083662 -235.1657041 477463.4297
 252.3264336 -252.3378888 477463.8666
 -252.3276536 -252.3378467 477463.8666
 -699.5095731 -235.1657347 477463.4297
 -984.2445846 -201.8399256 477462.9429
 963.8325592 -510.5823445 477462.7542
 651.5091825 -651.5206045 477463.111
 235.154297 -699.5197634 477463.4297
 -235.1555108 -699.5197916 477463.4297
 -651.5104013 -651.5205864 477463.111
 -963.8337721 -510.582352 477462.7542
 0 0 0
 510.570954 -963.8439565 477462.7542
 201.8285105 -984.2547831 477462.9429
 -201.8297266 -984.2547748 477462.9429
 -510.5721675 -963.8439638 477462.7542
 0 0 -0
 0 0 0
 281.9493413 532.1885324 477463.6202
 111.4929804 543.0503767 477463.6782
 -111.4937344 543.0503858 477463.6782
 -281.9500918 532.1885289 477463.6202
 0 0 -0
 532.1989017 281.9389802 477463.6202
 359.6411547 359.6307682 477463.7291
 129.8317059 385.9462174 477463.8264
 -129.8324559 385.9461938 477463.8264
 -359.6419127 359.6307857 477463.7291
 -532.199652 281.9389769 477463.6202
 543.0607587 111.4825884 477463.6782
 385.9565927 129.8213292 477463.8264
 139.2659433 139.2555334 477463.9594
 -139.2666998 139.2555642 477463.9594
 -385.9573382 129.821307 477463.8264
 -543.0615136 111.4825967 477463.6781
 543.0607792 -111.5041336 477463.6781
 385.9566 -129.8428727 477463.8264
 139.2659472 -139.277078 477463.9594
 -139.2666976 -139.2771061 477463.9594
 -385.9573575 -129.8428525 477463.8264
 -543.0615284 -111.5041415 477463.6781
 532.198949 -281.9605057 477463.6201
 359.6411864 -359.6523069 477463.7291
 129.8317171 -385.9677501 477463.8263
 -129.8324711 -385.9677319 477463.8263
 -359.6419365 -359.6523208 477463.7291
 -532.199702 -281.9605034 477463.6201
 0 0 0
 281.9493889 -532.2100739 477463.6201
 111.4929988 -543.0719045 477463.6781
 -111.4937514 -543.0719111 477463.6781
 -281.9501413 -532.2100718 477463.6201
 0 0 -0
 0 0 0
 89.92425155 169.7289206 477463.9614
 35.56191328 173.1255662 477463.9673
 -35.56216777 173.1255613 477463.9673
 -89.92450693 169.728924 477463.9614
 0 0 -0
 169.7395182 89.91366168 477463.9614
 114.6743985 114.6638073 477463.9725
 41.39595697 123.0168092 477463.9824
 -41.39621323 123.0168237 477463.9824
 -114.6746508 114.663797 477463.9725
 -169.7397738 89.9136651 477463.9614
 173.1361649 35.55130887 477463.9673
 123.0274288 41.385328 477463.9824
 44.39189331 44.38129155 477463.9959
 -44.39214688 44.38127248 477463.9959
 -123.0276862 41.38534262 477463.9824
 -173.1364182 35.55130364 477463.9673
 173.1361836 -35.57280339 477463.9673
 123.027439 -41.40682169 477463.9824
 44.39190029 -44.40278282 477463.9959
 -44.39215594 -44.40276478 477463.9959
 -123.0276923 -41.40683572 477463.9824
 -173.1364389 -35.5727985 477463.9673
 169.7395668 -89.93513789 477463.9614
 114.6744289 -114.6852935 477463.9725
 41.39596593 -123.0382949 477463.9824
 -41.39622071 -123.0383074 477463.9824
 -114.6746839 -114.6852846 477463.9725
 -169.7398213 -89.9351411 477463.9614
 0 0 0
 89.92429991 -169.7504137 477463.9614
 35.56193274 -173.1470428 477463.9673
 -35.56218756 -173.1470389 477463.9673
 -89.92455453 -169.7504166 477463.9614
 0 0 -0
 0 0 0
 -89.92429986 -169.7504137 477463.9614
 -35.56193284 -173.1470428 477463.9673
 35.56218767 -173.1470389 477463.9673
 89.92455447 -169.7504166 477463.9614
 0 0 -0
 -169.7395668 -89.93513789 477463.9614
 -114.6744291 -114.6852935 477463.9725
 -41.39596562 -123.0382949 477463.9824
 41.3962204 -123.0383074 477463.9824
 114.6746841 -114.6852846 477463.9725
 169.7398213 -89.93514111 477463.9614
 -173.1361837 -35.57280339 477463.9673
 -123.0274387 -41.4068217 477463.9824
 -44.39190072 -44.40278283 477463.9959
 44.39215636 -44.40276478 477463.9959
 123.027692 -41.40683573 477463.9824
 173.136439 -35.5727985 477463.9673
 -173.1361648 35.55130887 477463.9673
 -123.0274291 41.385328 477463.9824
 -44.39189289 44.38129154 477463.9959
 44.39214645 44.38127247 477463.9959
 123.0276865 41.38534262 477463.9824
 173.1364181 35.55130364 477463.9673
 -169.7395183 89.91366168 477463.9614
 -114.6743983 114.6638073 477463.9725
 -41.39595727 123.0168092 477463.9824
 41.39621354 123.0168237 477463.9824
 114.6746506 114.663797 477463.9725
 169.7397739 89.9136651 477463.9614
 0 0 0
 -89.92425161 169.7289206 477463.9614
 -35.56191318 173.1255662 477463.9673
 35.56216766 173.1255613 477463.9673
 89.92450699 169.728924 477463.9614
 0 0 -0
 0 0 0
 -281.9493889 -532.2100739 477463.6201
 -111.4929988 -543.0719045 477463.6781
 111.4937513 -543.0719111 477463.6781
 281.9501413 -532.2100718 477463.6201
 0 0 -0
 -532.198949 -281.9605057 477463.6201
 -359.6411862 -359.6523069 477463.7291
 -129.8317172 -385.9677501 477463.8263
 129.8324712 -385.9677319 477463.8263
 359.6419364 -359.6523209 477463.7291
 532.1997021 -281.9605034 477463.6201
 -543.0607791 -111.5041336 477463.6781
 -385.9566002 -129.8428727 477463.8264
 -139.2659469 -139.277078 477463.9594
 139.2666973 -139.2771061 477463.9594
 385.9573577 -129.8428525 477463.8264
 543.0615283 -111.5041415 477463.6781
 -543.0607587 111.4825884 477463.6782
 -385.9565926 129.8213292 477463.8264
 -139.2659436 139.2555334 477463.9594
 139.2667001 139.2555642 477463.9594
 385.957338 129.821307 477463.8264
 543.0615137 111.4825967 477463.6781
 -532.1989017 281.9389802 477463.6202
 -359.6411548 359.6307682 477463.7291
 -129.8317057 385.9462174 477463.8264
 129.8324557 385.9461938 477463.8264
 359.6419128 359.6307857 477463.7291
 532.1996519 281.9389769 477463.6202
 0 0 0
 -281.9493412 532.1885324 477463.6202
 -111.4929805 543.0503767 477463.6782
 111.4937344 543.0503858 477463.6782
 281.9500918 532.1885289 477463.6202
 0 0 -0
 0 0 0
 -510.570954 -963.8439566 477462.7542
 -201.8285105 -984.2547831 477462.9429
 201.8297266 -984.2547748 477462.9429
 510.5721675 -963.8439638 477462.7542
 0 0 -0
 -963.8325592 -510.5823445 477462.7542
 -651.5091825 -651.5206045 477463.111
 -235.1542971 -699.5197634 477463.4297
 235.1555109 -699.5197916 477463.4297
 651.5104013 -651.5205864 477463.111
 963.8337721 -510.5823521 477462.7542
 -984.243367 -201.8399352 477462.9429
 -699.5083662 -235.1657041 477463.4297
 -252.3264336 -252.3378888 477463.8666
 252.3276535 -252.3378468 477463.8666
 699.5095731 -235.1657348 477463.4297
 984.2445846 -201.8399256 477462.9429
 -984.2433564 201.8182934 477462.9429
 -699.5083373 235.1440597 477463.4297
 -252.3264471 252.3162477 477463.8667
 252.3276579 252.3162014 477463.8667
 699.5095626 235.1440931 477463.4297
 984.2445652 201.8182828 477462.9429
 -963.832508 510.5607219 477462.7542
 -651.5091662 651.4989732 477463.111
 -235.1542741 699.4981262 477463.4297
 235.1554942 699.4981626 477463.4297
 651.5103731 651.4989496 477463.111
 963.8337254 510.5607306 477462.7542
 0 0 0
 -510.5709037 963.8223187 477462.7542
 -201.8284966 984.2331631 477462.9429
 201.8297108 984.2331509 477462.9429
 510.5721201 963.8223279 477462.7542
 0 0 -0
 0 0 0
 -798.9987932 -1508.999936 477460.9469
 -315.4611919 -1542.505981 477461.4042
 315.4628123 -1542.505994 477461.4042
 799.0004137 -1508.999933 477460.9469
 0 0 -0
 -1508.988262 -799.0104601 477460.9469
 -1019.632098 -1019.643765 477461.8225
 -367.5897166 -1094.9513 477462.603
 367.591341 -1094.951266 477462.603
 1019.633713 -1019.64379 477461.8225
 1508.989883 -799.0104562 477460.9469
 -1542.494313 -315.4728775 477461.4042
 -1094.939582 -367.6014317 477462.603
 -394.3512784 -394.3629442 477463.6743
 394.3528955 -394.3629978 477463.6743
 1094.941213 -367.6013944 477462.603
 1542.495927 -315.4728917 477461.4042
 -1542.494285 315.4510985 477461.4042
 -1094.939599 367.5796516 477462.603
 -394.3512466 394.3411571 477463.6743
 394.3528746 394.3412161 477463.6743
 1094.941208 367.5796104 477462.603
 1542.495909 315.4511137 477461.4042
 -1508.988222 798.9887046 477460.947
 -1019.632052 1019.621991 477461.8226
 -367.5897265 1094.929534 477462.603
 367.5913436 1094.92949 477462.603
 1019.633681 1019.622024 477461.8226
 1508.989838 798.9886988 477460.947
 0 0 0
 -798.9987528 1508.978168 477460.947
 -315.4611677 1542.484224 477461.4042
 315.4627905 1542.484241 477461.4042
 799.0003698 1508.978162 477460.947
 0 0 -0
 0 0 0
 -1162.750252 -2198.368939 477457.5232
 -457.3729978 -2249.349685 477458.4825
 457.3749484 -2249.349675 477458.4825
 1162.752198 -2198.368948 477457.5232
 0 0 -0
 -2198.357029 -1162.762159 477457.5232
 -1481.344048 -1481.355984 477459.404
 -531.9339574 -1588.701007 477461.0606
 531.9359047 -1588.701042 477461.0606
 1481.346002 -1481.355962 477459.404
 2198.358974 -1162.762168 477457.5232
 -2249.337757 -457.3849366 477458.4826
 -1588.689092 -531.9458884 477461.0606
 -569.4631344 -569.4751147 477463.3208
 569.4650906 -569.4750607 477463.3208
 1588.691031 -531.9459277 477461.0606
 2249.339708 -457.3849245 477458.4826
 -2249.337749 457.3629976 477458.4826
 -1588.689063 531.9239387 477461.0606
 -569.4631494 569.4531646 477463.3208
 569.4650952 569.4531045 477463.3208
 1588.691023 531.923982 477461.0606
 2249.33969 457.362984 477458.4826
 -2198.356982 1162.740243 477457.5233
 -1481.344036 1481.334057 477459.4041
 -531.9339352 1588.679066 477461.0607
 531.9358896 1588.679113 477461.0607
 1481.345977 1481.334027 477459.4041
 2198.358932 1162.740254 477457.5233
 0 0 0
 -1162.750207 2198.347013 477457.5233
 -457.372986 2249.327776 477458.4826
 457.3749344 2249.327761 477458.4826
 1162.752156 2198.347026 477457.5233
 0 0 -0
 0 0 0
 -1590.712767 -3011.538281 477451.8526
 -619.0148639 -3082.327026 477453.6495
 619.0170464 -3082.327035 477453.6495
 1590.714948 -3011.538279 477451.8526
 0 0 -0
 -3011.526171 -1590.724873 477451.8527
 -2010.828847 -2010.840969 477455.5313
 -714.8512038 -2145.327231 477458.6452
 714.8533912 -2145.327207 477458.6452
 2010.831024 -2010.840988 477455.5313
 3011.528353 -1590.724872 477451.8526
 -3082.314914 -619.0269986 477453.6495
 -2145.315082 -714.8633537 477458.6452
 -760.6482276 -760.6603661 477462.7882
 760.6504096 -760.6604062 477462.7882
 2145.317272 -714.8633258 477458.6452
 3082.31709 -619.0270098 477453.6495
 -3082.314897 619.004896 477453.6495
 -2145.315079 714.8412402 477458.6452
 -760.648224 760.6382389 477462.7882
 760.6504135 760.6382842 477462.7882
 2145.317254 714.8412085 477458.6452
 3082.317079 619.0049081 477453.6495
 -3011.526134 1590.702801 477451.8527
 -2010.828821 2010.818872 477455.5314
 -714.8511959 2145.305135 477458.6453
 714.8533782 2145.305101 477458.6453
 2010.831008 2010.818898 477455.5314
 3011.528312 1590.702797 477451.8527
 0 0 0
 -1590.71273 3011.516204 477451.8528
 -619.0148493 3082.304955 477453.6496
 619.0170334 3082.304968 477453.6496
 1590.714909 3011.5162 477451.8527
 0 0 -0
 0 0 0
 -1994.5822 -3767.243149 477444.9715
 -754.833544 -3851.946317 477447.8653
 754.8358514 -3851.946316 477447.8652
 1994.584503 -3767.243153 477444.9715
 0 0 -0
 -3767.230918 -1994.594431 477444.9716
 -2461.670251 -2461.682502 477451.3081
 -859.5981375 -2596.825384 477456.1644
 859.6004454 -2596.825393 477456.1644
 2461.672559 -2461.682498 477451.3081
 3767.23322 -1994.594435 477444.9715
 -3851.934077 -754.845802 477447.8653
 -2596.813124 -859.6104081 477456.1644
 -905.890382 -905.9026648 477462.2812
 905.8926936 -905.9026505 477462.2812
 2596.815428 -859.6104192 477456.1644
 3851.936381 -754.8457995 477447.8653
 -3851.934064 754.8235784 477447.8654
 -2596.813117 859.5881666 477456.1644
 -905.8903763 905.880415 477462.2813
 905.8926851 905.8803986 477462.2813
 2596.815427 859.588179 477456.1644
 3851.936366 754.8235752 477447.8653
 -3767.230884 1994.572236 477444.9716
 -2461.670231 2461.660286 477451.3082
 -859.5981322 2596.803155 477456.1645
 859.6004421 2596.803169 477456.1645
 2461.672535 2461.660279 477451.3082
 3767.233188 1994.572241 477444.9716
 0 0 0
 -1994.582166 3767.220953 477444.9717
 -754.8335302 3851.924129 477447.8654
 754.8358371 3851.924125 477447.8654
 1994.584471 3767.220959 477444.9717
 0 0 -0
# End: Data Text
# End: Segment
