# OOMMF OVF 2.0
#
# Segment count: 1
#
# Begin: Segment
# Begin: Header
#
# Title: Oxs_MinDriver::Magnetization
# Desc: Oxs vector field output
# Desc:  MIF source file: F:/Bogdan/UNIC/2022/Master_degree/Samples/Cylinder0_5000 1.mif
# Desc:  Iteration: 781, State id: 4017
# Desc:  Stage: 1, Stage iteration: 262
# Desc:  Stage simulation time: 0 s
# Desc:  Total simulation time: -2 s
# meshunit: m
# meshtype: rectangular
# xbase: -8.9999999999999995e-09
# ybase: -8.9999999999999995e-09
# zbase: -2.0999999999999999e-08
# xnodes: 10
# ynodes: 10
# znodes: 22
# xstepsize: 2.0000000000000001e-09
# ystepsize: 2.0000000000000001e-09
# zstepsize: 2.0000000000000001e-09
# xmin: -1e-08
# ymin: -1e-08
# zmin: -2.1999999999999998e-08
# xmax: 1e-08
# ymax: 1e-08
# zmax: 2.2000000000000005e-08
# valuedim: 3
# valuelabels: Magnetization_x Magnetization_y Magnetization_z
# valueunits: A/m A/m A/m
#
# End: Header
#
# Begin: Data Text
 0 0 0
 0 0 0
 0 0 0
 9513.949567 36386.74977 475980.4203
 3598.330514 36650.93364 476041.6288
 -3598.3304 36650.93378 476041.6288
 -9513.949432 36386.74995 475980.4203
 0 0 -0
 0 0 -0
 0 0 -0
 0 0 0
 26990.77836 26990.77449 475935.7806
 21531.34838 28181.51282 476145.0143
 12724.7617 30715.54049 476305.057
 4305.467819 31439.60955 476408.3177
 -4305.467445 31439.60953 476408.3177
 -12724.76127 30715.5409 476305.057
 -21531.34777 28181.51331 476145.0143
 -26990.77768 26990.77516 475935.7806
 0 0 -0
 0 0 0
 28181.51755 21531.34197 476145.0143
 22303.92375 22303.91683 476420.971
 13871.19452 23354.76493 476690.6924
 4699.265659 23836.72112 476845.4665
 -4699.264859 23836.72139 476845.4665
 -13871.19366 23354.76518 476690.6924
 -22303.92284 22303.91746 476420.971
 -28181.51656 21531.34264 476145.0144
 0 0 -0
 36386.75468 9513.938019 475980.4201
 30715.5463 12724.75083 476305.0569
 23354.77257 13871.18464 476690.6923
 14515.56348 14515.55395 477022.503
 4917.64719 14808.30772 477208.9711
 -4917.645807 14808.30772 477208.9711
 -14515.5621 14515.55445 477022.5031
 -23354.77111 13871.18517 476690.6924
 -30715.54477 12724.75161 476305.057
 -36386.75293 9513.938872 475980.4203
 36650.93946 3598.317993 476041.6285
 31439.61584 4305.455466 476408.3174
 23836.72953 4699.253518 476845.4662
 14808.31759 4917.635603 477208.9709
 5016.533666 5016.522139 477411.2904
 -5016.531629 5016.522389 477411.2904
 -14808.31555 4917.635909 477208.9709
 -23836.72749 4699.254195 476845.4663
 -31439.6138 4305.456212 476408.3175
 -36650.93738 3598.318871 476041.6286
 36650.94027 -3598.344672 476041.6282
 31439.61677 -4305.482044 476408.3171
 23836.73046 -4699.279027 476845.4659
 14808.31856 -4917.659207 477208.9706
 5016.534253 -5016.544378 477411.2901
 -5016.531539 -5016.544299 477411.2902
 -14808.31584 -4917.658748 477208.9707
 -23836.72783 -4699.278466 476845.466
 -31439.61419 -4305.48124 476408.3173
 -36650.93781 -3598.343804 476041.6284
 36386.75699 -9513.963978 475980.4195
 30715.54914 -12724.77728 476305.056
 23354.7755 -13871.20906 476690.6915
 14515.56588 -14515.57663 477022.5023
 4917.648887 -14808.32947 477208.9704
 -4917.645504 -14808.32931 477208.9704
 -14515.5626 -14515.57629 477022.5024
 -23354.77227 -13871.20843 476690.6916
 -30715.54609 -12724.77656 476305.0562
 -36386.75419 -9513.963118 475980.4197
 0 0 0
 28181.52211 -21531.36398 476145.0131
 22303.92794 -22303.93871 476420.9697
 13871.19801 -23354.78639 476690.6912
 4699.267923 -23836.74205 476845.4654
 -4699.264037 -23836.74193 476845.4655
 -13871.19414 -23354.78602 476690.6914
 -22303.92426 -22303.93819 476420.9699
 -28181.51852 -21531.36328 476145.0133
 0 0 -0
 0 0 0
 26990.78384 -26990.79333 475935.7792
 21531.35326 -28181.53165 476145.013
 12724.7655 -30715.55981 476305.0556
 4305.470607 -31439.62765 476408.3165
 -4305.46631 -31439.62755 476408.3165
 -12724.76132 -30715.55951 476305.0558
 -21531.34925 -28181.53112 476145.0132
 -26990.77997 -26990.79266 475935.7795
 0 0 -0
 0 0 0
 0 0 0
 0 0 0
 9513.952939 -36386.76794 475980.4188
 3598.333307 -36650.95114 476041.6275
 -3598.328813 -36650.95105 476041.6275
 -9513.948486 -36386.76773 475980.4189
 0 0 -0
 0 0 -0
 0 0 -0
 0 0 0
 0 0 0
 0 0 0
 8065.541031 31745.16803 476339.2306
 3110.724119 31986.10203 476381.2381
 -3110.72405 31986.10198 476381.2381
 -8065.540937 31745.1683 476339.2306
 0 0 -0
 0 0 -0
 0 0 -0
 0 0 0
 23511.39515 23511.39187 476304.8394
 18971.47289 24624.33706 476451.0432
 11185.06458 27142.1632 476560.6662
 3804.655171 27933.02715 476631.0333
 -3804.654851 27933.02755 476631.0333
 -11185.0642 27142.16328 476560.6662
 -18971.47234 24624.33765 476451.0432
 -23511.39453 23511.39246 476304.8394
 0 0 -0
 0 0 0
 24624.3412 18971.46652 476451.0432
 19814.81248 19814.80595 476640.9739
 12415.10262 20924.62024 476843.6817
 4221.909521 21453.99836 476963.0727
 -4221.908768 21453.99817 476963.0727
 -12415.10188 20924.62081 476843.6817
 -19814.8116 19814.80636 476640.9739
 -24624.34028 18971.46721 476451.0432
 0 0 -0
 31745.17219 8065.529775 476339.2306
 27142.16762 11185.05451 476560.6662
 20924.6273 12415.09311 476843.6817
 13109.62694 13109.61757 477103.9163
 4457.246944 13428.04122 477254.3263
 -4457.245658 13428.04161 477254.3263
 -13109.62558 13109.61775 477103.9163
 -20924.62595 12415.09379 476843.6817
 -27142.16617 11185.05518 476560.6663
 -31745.17049 8065.53059 476339.2307
 31986.10675 3110.711926 476381.2378
 27933.03298 3804.643066 476631.033
 21454.00571 4221.897894 476963.0725
 13428.05118 4457.235335 477254.3261
 4564.248757 4564.237809 477420.3668
 -4564.246813 4564.237739 477420.3668
 -13428.04923 4457.235878 477254.3262
 -21454.00378 4221.898362 476963.0726
 -27933.03099 3804.64386 476631.0331
 -31986.10478 3110.712735 476381.2379
 31986.10758 -3110.737689 476381.2376
 27933.03367 -3804.668661 476631.0328
 21454.00666 -4221.922792 476963.0722
 13428.05176 -4457.258861 477254.3259
 4564.249419 -4564.259987 477420.3666
 -4564.246786 -4564.259729 477420.3666
 -13428.04922 -4457.258626 477254.3259
 -21454.00408 -4221.922083 476963.0723
 -27933.03122 -3804.667987 476631.0329
 -31986.10519 -3110.736841 476381.2378
 31745.17439 -8065.555044 476339.23
 27142.1704 -11185.07962 476560.6655
 20924.62973 -12415.11679 476843.6809
 13109.62914 -13109.64007 477103.9156
 4457.248215 -13428.06305 477254.3257
 -4457.24501 -13428.06301 477254.3257
 -13109.6259 -13109.63959 477103.9157
 -20924.62667 -12415.11634 476843.6811
 -27142.16746 -11185.07882 476560.6657
 -31745.17169 -8065.554234 476339.2302
 0 0 0
 24624.34534 -18971.48751 476451.0422
 19814.81652 -19814.82677 476640.9728
 12415.10557 -20924.64089 476843.6807
 4221.911796 -21454.01802 476963.0718
 -4221.907997 -21454.01786 476963.0718
 -12415.10193 -20924.64063 476843.6808
 -19814.81291 -19814.82614 476640.973
 -24624.34188 -18971.48688 476451.0424
 0 0 -0
 0 0 0
 23511.40032 -23511.40941 476304.8383
 18971.47736 -24624.35492 476451.0421
 11185.06831 -27142.18088 476560.6651
 3804.657618 -27933.04476 476631.0322
 -3804.6535 -27933.04466 476631.0323
 -11185.0642 -27142.18055 476560.6653
 -18971.4735 -24624.35444 476451.0422
 -23511.39657 -23511.40875 476304.8385
 0 0 -0
 0 0 0
 0 0 0
 0 0 0
 8065.544255 -31745.18472 476339.2295
 3110.726948 -31986.11823 476381.2369
 -3110.72259 -31986.11816 476381.237
 -8065.539959 -31745.18451 476339.2296
 0 0 -0
 0 0 -0
 0 0 -0
 0 0 0
 0 0 0
 0 0 0
 6506.019224 26055.40844 476708.1483
 2522.73527 26257.52568 476734.7789
 -2522.735287 26257.5259 476734.7789
 -6506.019233 26055.40856 476708.1483
 0 0 -0
 0 0 -0
 0 0 -0
 0 0 0
 19290.98449 19290.98138 476683.949
 15634.8412 20235.78551 476778.7076
 9202.917352 22416.15555 476848.7114
 3135.73455 23142.8656 476892.4892
 -3135.734346 23142.86536 476892.4892
 -9202.917069 22416.15604 476848.7114
 -15634.84077 20235.78591 476778.7076
 -19290.98396 19290.98197 476683.949
 0 0 -0
 0 0 0
 20235.78823 15634.83585 476778.7077
 16417.30549 16417.30016 476899.1672
 10343.373 17450.68362 477032.8705
 3528.25596 17962.85944 477112.9409
 -3528.255346 17962.85986 477112.9409
 -10343.37233 17450.68374 477032.8705
 -16417.30474 16417.30071 476899.1672
 -20235.78744 15634.83646 476778.7077
 0 0 -0
 26055.411 6506.009324 476708.1483
 22416.15898 9202.908542 476848.7114
 17450.68841 10343.36507 477032.8705
 11013.45873 11013.45054 477209.8898
 3758.448324 11328.71218 477314.7867
 -3758.447151 11328.71209 477314.7868
 -11013.45755 11013.45098 477209.8898
 -17450.6872 10343.36558 477032.8706
 -22416.15761 9202.909191 476848.7115
 -26055.40946 6506.010082 476708.1484
 26257.529 2522.723733 476734.7788
 23142.86901 3135.723879 476892.4891
 17962.86526 3528.245432 477112.9408
 11328.72059 3758.437883 477314.7866
 3865.350029 3865.339082 477432.7068
 -3865.348234 3865.339343 477432.7068
 -11328.71883 3758.438138 477314.7867
 -17962.86343 3528.246023 477112.9408
 -23142.86724 3135.724541 476892.4892
 -26257.52713 2522.724501 476734.7789
 26257.52972 -2522.747998 476734.7786
 23142.86986 -3135.747225 476892.4889
 17962.86562 -3528.267792 477112.9406
 11328.72133 -3758.460054 477314.7864
 3865.350259 -3865.360767 477432.7066
 -3865.347845 -3865.360773 477432.7066
 -11328.71889 -3758.459579 477314.7865
 -17962.86328 -3528.267359 477112.9407
 -23142.86756 -3135.746457 476892.489
 -26257.52748 -2522.747255 476734.7788
 26055.41323 -6506.032564 476708.1479
 22416.16131 -9202.931084 476848.7109
 17450.69065 -10343.38647 477032.87
 11013.46001 -11013.47099 477209.8893
 3758.449715 -11328.73297 477314.7862
 -3758.446656 -11328.73274 477314.7863
 -11013.45705 -11013.4708 477209.8894
 -17450.68775 -10343.38577 477032.8701
 -22416.15849 -9202.930526 476848.711
 -26055.41069 -6506.031775 476708.1481
 0 0 0
 20235.7921 -15634.85496 476778.7069
 16417.30873 -16417.3188 476899.1664
 10343.37577 -17450.70147 477032.8698
 3528.257573 -17962.87722 477112.9402
 -3528.254048 -17962.87718 477112.9403
 -10343.37224 -17450.70103 477032.8699
 -16417.30535 -16417.31843 476899.1665
 -20235.78883 -15634.85426 476778.707
 0 0 -0
 0 0 0
 19290.98923 -19290.99824 476683.9481
 15634.84535 -20235.80148 476778.7068
 9202.92048 -22416.17184 476848.7106
 3135.737116 -23142.88136 476892.4884
 -3135.733179 -23142.88125 476892.4884
 -9202.916664 -22416.17161 476848.7107
 -15634.84166 -20235.80095 476778.7069
 -19290.98566 -19290.99765 476683.9483
 0 0 -0
 0 0 0
 0 0 0
 0 0 0
 6506.022448 -26055.42428 476708.1474
 2522.737889 -26257.54084 476734.7781
 -2522.733773 -26257.54075 476734.7781
 -6506.018353 -26055.42408 476708.1475
 0 0 -0
 0 0 -0
 0 0 -0
 0 0 0
 0 0 0
 0 0 0
 5093.441763 20607.96231 476991.8658
 1977.31735 20766.04335 477008.1058
 -1977.317502 20766.04329 477008.1058
 -5093.441878 20607.96255 476991.8658
 0 0 -0
 0 0 -0
 0 0 -0
 0 0 0
 15258.70383 15258.70176 476976.116
 12380.2428 16008.94089 477034.9198
 7276.216361 17767.19488 477077.8288
 2479.570865 18368.18391 477104.1111
 -2479.570776 18368.18429 477104.1111
 -7276.216251 17767.19498 477077.8288
 -12380.24247 16008.94134 477034.9198
 -15258.70347 15258.70229 476976.116
 0 0 -0
 0 0 0
 16008.94272 12380.23861 477034.9198
 13029.74421 13029.7406 477108.2927
 8231.01348 13897.67488 477190.7128
 2812.332923 14337.93712 477240.3856
 -2812.332453 14337.93694 477240.3856
 -8231.012949 13897.67528 477190.7128
 -13029.74366 13029.7411 477108.2927
 -16008.94203 12380.23911 477034.9198
 0 0 -0
 20607.96331 5093.433049 476991.8658
 17767.19599 7276.208879 477077.8289
 13897.67926 8231.006592 477190.7128
 8809.251463 8809.244302 477301.441
 3013.593394 9087.242928 477368.0043
 -3013.592401 9087.243184 477368.0043
 -8809.250474 8809.244608 477301.441
 -13897.67812 8231.006966 477190.7128
 -17767.1949 7276.209605 477077.8289
 -20607.96192 5093.433706 476991.8659
 20766.04442 1977.307485 477008.1057
 18368.18611 2479.561105 477104.1111
 14337.94142 2812.323302 477240.3855
 9087.250889 3013.583033 477368.0043
 3109.00147 3108.991132 477443.7554
 -3108.999886 3108.991137 477443.7554
 -9087.249254 3013.583347 477368.0043
 -14337.93988 2812.323878 477240.3856
 -18368.18443 2479.561667 477104.1111
 -20766.04276 1977.308202 477008.1058
 20766.04518 -1977.329054 477008.1056
 18368.18656 -2479.582712 477104.111
 14337.94201 -2812.344521 477240.3854
 9087.250962 -3013.60456 477368.0041
 3109.002089 -3109.012901 477443.7553
 -3108.999874 -3109.012672 477443.7553
 -9087.248795 -3013.604307 477368.0042
 -14337.93984 -2812.343989 477240.3854
 -18368.18444 -2479.582115 477104.111
 -20766.04315 -1977.328337 477008.1057
 20607.96542 -5093.453954 476991.8655
 17767.19814 -7276.229162 477077.8285
 13897.68064 -8231.025981 477190.7124
 8809.252659 -8809.264234 477301.4406
 3013.594126 -9087.262969 477368.004
 -3013.591341 -9087.26296 477368.004
 -8809.24991 -8809.263831 477301.4407
 -13897.67793 -8231.025606 477190.7125
 -17767.19564 -7276.228445 477077.8286
 -20607.96305 -5093.453278 476991.8656
 0 0 0
 16008.94596 -12380.25625 477034.9193
 13029.74703 -13029.75732 477108.2921
 8231.015398 -13897.69285 477190.7122
 2812.334658 -14337.95484 477240.385
 -2812.331365 -14337.95472 477240.3851
 -8231.012166 -13897.69262 477190.7123
 -13029.74391 -13029.75675 477108.2922
 -16008.94288 -12380.25575 477034.9194
 0 0 -0
 0 0 0
 15258.70812 -15258.71753 476976.1154
 12380.24631 -16008.95628 477034.9192
 7276.219317 -17767.20977 477077.8282
 2479.573008 -18368.19931 477104.1105
 -2479.56937 -18368.19918 477104.1105
 -7276.215725 -17767.20951 477077.8283
 -12380.24289 -16008.95586 477034.9193
 -15258.70481 -15258.71693 476976.1155
 0 0 -0
 0 0 0
 0 0 0
 0 0 0
 5093.444752 -20607.97807 476991.8651
 1977.319943 -20766.05829 477008.1051
 -1977.316091 -20766.05825 477008.1051
 -5093.44094 -20607.97787 476991.8651
 0 0 -0
 0 0 -0
 0 0 -0
 0 0 0
 0 0 0
 0 0 0
 3896.631537 15867.51321 477184.356
 1512.978983 15985.32235 477193.9351
 -1512.979267 15985.3225 477193.9351
 -3896.63181 15867.51333 477184.356
 0 0 -0
 0 0 -0
 0 0 -0
 0 0 0
 11750.57212 11750.57052 477174.7263
 9531.80407 12321.27537 477209.8094
 5593.697142 13682.24265 477235.1392
 1905.437352 14150.85316 477250.452
 -1905.43743 14150.85305 477250.452
 -5593.697131 13682.24294 477235.1392
 -9531.803949 12321.27579 477209.8094
 -11750.57189 11750.57095 477174.7263
 0 0 -0
 0 0 0
 12321.2766 9531.801278 477209.8094
 10036.88193 10036.879 477252.9658
 6345.357733 10719.9697 477301.4666
 2169.318784 11070.49878 477330.7128
 -2169.318482 11070.49903 477330.7128
 -6345.357417 10719.96997 477301.4666
 -10036.88145 10036.87924 477252.9658
 -12321.27615 9531.801894 477209.8094
 0 0 -0
 15867.51276 3896.624083 477184.356
 13682.24363 5593.691151 477235.1392
 10719.97241 6345.352029 477301.4666
 6807.837262 6807.831091 477366.9219
 2331.686494 7033.027465 477406.505
 -2331.6857 7033.027492 477406.505
 -6807.836404 6807.831241 477366.9219
 -10719.97161 6345.352737 477301.4666
 -13682.24261 5593.691454 477235.1393
 -15867.51159 3896.624767 477184.3561
 15985.32232 1512.970373 477193.9351
 14150.85371 1905.429165 477250.452
 11070.50236 2169.310037 477330.7128
 7033.033709 2331.677227 477406.505
 2409.678261 2409.668596 477451.8387
 -2409.67689 2409.668726 477451.8387
 -7033.032381 2331.677644 477406.505
 -11070.5009 2169.310234 477330.7128
 -14150.85233 1905.429933 477250.4521
 -15985.32085 1512.970933 477193.9351
 15985.32288 -1512.989499 477193.935
 14150.85442 -1905.447434 477250.4519
 11070.50233 -2169.329264 477330.7127
 7033.034077 -2331.697005 477406.5049
 2409.678369 -2409.688744 477451.8386
 -2409.67641 -2409.688705 477451.8386
 -7033.032115 -2331.696778 477406.5049
 -11070.50043 -2169.328681 477330.7127
 -14150.85255 -1905.446964 477250.452
 -15985.32103 -1512.988828 477193.9351
 15867.51475 -3896.642749 477184.3558
 13682.24513 -5593.709253 477235.139
 10719.97377 -6345.369958 477301.4663
 6807.837769 -6807.84933 477366.9216
 2331.68737 -7033.046146 477406.5048
 -2331.684862 -7033.046029 477406.5048
 -6807.835264 -6807.849018 477366.9216
 -10719.97135 -6345.369541 477301.4664
 -13682.24277 -5593.708698 477235.1391
 -15867.51265 -3896.642106 477184.3559
 0 0 0
 12321.27944 -9531.81748 477209.809
 10036.88389 -10036.89521 477252.9654
 6345.359498 -10719.98599 477301.4662
 2169.320049 -11070.51606 477330.7124
 -2169.317037 -11070.51588 477330.7124
 -6345.35656 -10719.98579 477301.4662
 -10036.88101 -10036.89477 477252.9655
 -12321.27667 -9531.816931 477209.8091
 0 0 -0
 0 0 0
 11750.57578 -11750.58593 477174.7259
 9531.807221 -12321.29038 477209.8089
 5593.699519 -13682.2584 477235.1387
 1905.439531 -14150.86898 477250.4515
 -1905.436186 -14150.86904 477250.4516
 -5593.696222 -13682.25807 477235.1388
 -9531.804086 -12321.28998 477209.809
 -11750.57273 -11750.58539 477174.7259
 0 0 -0
 0 0 0
 0 0 0
 0 0 0
 3896.634395 -15867.52917 477184.3554
 1512.981353 -15985.33847 477193.9345
 -1512.977795 -15985.33833 477193.9345
 -3896.630874 -15867.52902 477184.3555
 0 0 -0
 0 0 -0
 0 0 -0
 0 0 0
 0 0 0
 0 0 0
 2918.665312 11936.28864 477305.8534
 1133.184544 12021.26613 477311.2992
 -1133.184995 12021.26616 477311.2992
 -2918.665734 11936.28878 477305.8534
 0 0 -0
 0 0 -0
 0 0 -0
 0 0 0
 8840.800587 8840.799561 477300.2743
 7166.551221 9262.094633 477320.3593
 4199.743555 10285.29775 477334.7317
 1429.788165 10637.23036 477343.3527
 -1429.7884 10637.23045 477343.3527
 -4199.743756 10285.29803 477334.7317
 -7166.551233 9262.094904 477320.3593
 -8840.800556 8840.800057 477300.2742
 0 0 -0
 0 0 0
 9262.095716 7166.549188 477320.3594
 7543.439557 7543.437035 477344.8066
 4768.016395 8058.628536 477372.1775
 1630.022443 8324.220717 477388.6485
 -1630.022327 8324.220857 477388.6485
 -4768.016221 8058.628574 477372.1775
 -7543.439346 7543.437706 477344.8066
 -9262.095412 7166.549471 477320.3594
 0 0 -0
 11936.28789 2918.659335 477305.8535
 10285.29834 4199.73833 477334.7317
 8058.631505 4768.011657 477372.1775
 5119.720366 5119.714681 477409.0995
 1754.099817 5291.961967 477431.4501
 -1754.099234 5291.961923 477431.4501
 -5119.719773 5119.715258 477409.0995
 -8058.630803 4768.011616 477372.1775
 -10285.29758 4199.739172 477334.7318
 -11936.28692 2918.659818 477305.8535
 12021.26574 1133.177725 477311.2992
 10637.23147 1429.781466 477343.3527
 8324.223901 1630.014788 477388.6484
 5291.967875 1754.091519 477431.4501
 1814.080423 1814.071586 477457.1076
 -1814.079297 1814.071825 477457.1076
 -5291.966706 1754.091467 477431.4501
 -8324.222776 1630.01563 477388.6484
 -10637.23029 1429.781642 477343.3527
 -12021.26448 1133.178424 477311.2993
 12021.26641 -1133.193123 477311.2992
 10637.23155 -1429.796905 477343.3526
 8324.224484 -1630.031778 477388.6484
 5291.967698 -1754.109696 477431.45
 1814.080817 -1814.09039 477457.1075
 -1814.079118 -1814.09039 477457.1075
 -5291.96602 -1754.109205 477431.45
 -8324.222772 -1630.031662 477388.6484
 -10637.22991 -1429.79615 477343.3526
 -12021.26483 -1133.192611 477311.2992
 11936.28956 -2918.674862 477305.8533
 10285.30007 -4199.754371 477334.7316
 8058.632055 -4768.026876 477372.1773
 5119.721135 -5119.731992 477409.0993
 1754.10033 -5291.979422 477431.4499
 -1754.098057 -5291.979253 477431.4499
 -5119.718918 -5119.731872 477409.0993
 -8058.629924 -4768.026304 477372.1773
 -10285.29799 -4199.753954 477334.7316
 -11936.28769 -2918.674241 477305.8534
 0 0 0
 9262.097924 -7166.56366 477320.3591
 7543.441615 -7543.452859 477344.8063
 4768.017495 -8058.644595 477372.1772
 1630.023906 -8324.237977 477388.6481
 -1630.021214 -8324.238012 477388.6482
 -4768.0148 -8058.644217 477372.1772
 -7543.438998 -7543.452555 477344.8063
 -9262.095415 -7166.563137 477320.3591
 0 0 -0
 0 0 0
 8840.803858 -8840.814144 477300.2739
 7166.55381 -9262.109065 477320.359
 4199.745964 -10285.31375 477334.7313
 1429.789954 -10637.24724 477343.3523
 -1429.786874 -10637.24702 477343.3523
 -4199.742987 -10285.31364 477334.7314
 -7166.550958 -9262.108622 477320.3591
 -8840.801072 -8840.813666 477300.274
 0 0 -0
 0 0 0
 0 0 0
 0 0 0
 2918.667894 -11936.30523 477305.853
 1133.186889 -12021.28322 477311.2988
 -1133.183634 -12021.28323 477311.2988
 -2918.664656 -11936.30503 477305.853
 0 0 -0
 0 0 -0
 0 0 -0
 0 0 0
 0 0 0
 0 0 0
 2133.865152 8752.573207 477379.0008
 828.3770631 8812.260051 477381.9531
 -828.3776687 8812.260122 477381.9531
 -2133.865748 8752.573351 477379.0008
 0 0 -0
 0 0 -0
 0 0 -0
 0 0 0
 6483.719884 6483.719753 477375.9462
 5251.700371 6786.487103 477386.8814
 3073.823099 7534.683656 477394.6496
 1045.869076 7790.872654 477399.2876
 -1045.86949 7790.872756 477399.2876
 -3073.82344 7534.68378 477394.6496
 -5251.700596 6786.487552 477386.8814
 -6483.720034 6483.720137 477375.9462
 0 0 -0
 0 0 0
 6786.487665 5251.699013 477386.8814
 5523.917398 5523.915581 477400.088
 3489.343256 5899.409514 477414.8016
 1192.517205 6093.159573 477423.6301
 -1192.517284 6093.159511 477423.6301
 -3489.343292 5899.409985 477414.8016
 -5523.917351 5523.915665 477400.088
 -6786.487551 5251.699615 477386.8814
 0 0 -0
 8752.572519 2133.860727 477379.0008
 7534.684067 3073.819564 477394.6496
 5899.411805 3489.339637 477414.8016
 3746.602952 3746.598542 477434.6
 1283.49081 3872.781648 477446.5682
 -1283.490431 3872.781944 477446.5682
 -3746.60255 3746.598442 477434.6
 -5899.411333 3489.340452 477414.8016
 -7534.683567 3073.819724 477394.6496
 -8752.571741 2133.861355 477379.0008
 8812.2599 828.3724323 477381.9531
 7790.873478 1045.863675 477399.2876
 6093.162322 1192.511557 477423.6301
 3872.786294 1283.484221 477446.5682
 1327.554041 1327.546659 477460.3088
 -1327.553144 1327.546528 477460.3088
 -3872.785396 1283.484824 477446.5682
 -6093.161383 1192.511529 477423.6301
 -7790.872467 1045.864496 477399.2876
 -8812.25892 828.3728754 477381.9531
 8812.260307 -828.3836211 477381.9531
 7790.874093 -1045.876103 477399.2875
 6093.162106 -1192.524885 477423.6301
 3872.786793 -1283.498829 477446.5682
 1327.554017 -1327.562605 477460.3088
 -1327.552551 -1327.562344 477460.3088
 -3872.785332 -1283.498833 477446.5682
 -6093.160729 -1192.52418 477423.6301
 -7790.872699 -1045.875846 477399.2875
 -8812.258941 -828.3829805 477381.9531
 8752.574093 -2133.872299 477379.0007
 7534.685148 -3073.831863 477394.6495
 5899.412924 -3489.352595 477414.8014
 3746.603194 -3746.613409 477434.5999
 1283.491712 -3872.797282 477446.5681
 -1283.489753 -3872.797298 477446.5681
 -3746.601242 -3746.613024 477434.5999
 -5899.410961 -3489.352378 477414.8015
 -7534.683387 -3073.831266 477394.6495
 -8752.572473 -2133.871771 477379.0008
 0 0 0
 6786.489841 -5251.711639 477386.8812
 5523.918837 -5523.929335 477400.0878
 3489.344683 -5899.424603 477414.8014
 1192.518293 -6093.175723 477423.6299
 -1192.515834 -6093.175607 477423.6299
 -3489.342318 -5899.424441 477414.8014
 -5523.916571 -5523.928891 477400.0878
 -6786.487555 -5251.711217 477386.8813
 0 0 -0
 0 0 0
 6483.722707 -6483.732399 477375.946
 5251.702828 -6786.501101 477386.8812
 3073.825086 -7534.699236 477394.6493
 1045.870957 -7790.889563 477399.2873
 -1045.868223 -7790.889514 477399.2873
 -3073.822345 -7534.69899 477394.6493
 -5251.700249 -6786.500762 477386.8812
 -6483.720218 -6483.73192 477375.9461
 0 0 -0
 0 0 0
 0 0 0
 0 0 0
 2133.867543 -8752.590251 477379.0004
 828.3791969 -8812.277697 477381.9528
 -828.3762237 -8812.277618 477381.9528
 -2133.864626 -8752.590106 477379.0005
 0 0 -0
 0 0 -0
 0 0 -0
 0 0 0
 0 0 0
 0 0 0
 1505.561796 6188.018076 477421.5255
 584.3871582 6228.607445 477423.0139
 -584.3879384 6228.60745 477423.0139
 -1505.562549 6188.018243 477421.5255
 0 0 -0
 0 0 -0
 0 0 -0
 0 0 0
 4584.54972 4584.550624 477419.9777
 3710.69628 4794.71356 477425.5049
 2169.696636 5321.936504 477429.4091
 737.8647623 5501.503393 477431.7337
 -737.8653523 5501.503528 477431.7337
 -2169.69719 5321.936688 477429.4091
 -3710.696671 4794.713874 477425.5049
 -4584.550056 4584.551069 477419.9777
 0 0 -0
 0 0 0
 4794.713538 3710.695868 477425.5049
 3900.049258 3900.048499 477432.1423
 2461.801621 4163.171843 477439.5028
 841.0122288 4298.830051 477443.9067
 -841.0124903 4298.830145 477443.9067
 -2461.801861 4163.171975 477439.5028
 -3900.049403 3900.049004 477432.1423
 -4794.713659 3710.696205 477425.5049
 0 0 -0
 6188.017501 1505.559353 477421.5255
 5321.936234 2169.694853 477429.4091
 4163.172912 2461.799544 477439.5028
 2642.268576 2642.266009 477449.3776
 904.8919951 2730.727457 477455.3336
 -904.8918492 2730.72744 477455.3336
 -2642.268368 2642.266436 477449.3776
 -4163.172703 2461.799664 477439.5028
 -5321.935839 2169.695537 477429.4091
 -6188.017012 1505.559839 477421.5255
 6228.607039 584.3842096 477423.0139
 5501.504111 737.8619765 477431.7337
 4298.83118 841.0085851 477443.9067
 2730.730355 904.8874791 477455.3336
 935.8178806 935.8129519 477462.1658
 -935.8172053 935.8131935 477462.1658
 -2730.729677 904.8875081 477455.3336
 -4298.830482 841.009237 477443.9067
 -5501.503442 737.862246 477431.7337
 -6228.606225 584.384834 477423.014
 6228.607514 -584.39162 477423.0139
 5501.504143 -737.869896 477431.7337
 4298.831761 -841.0180994 477443.9067
 2730.730263 -904.8983128 477455.3336
 935.8184041 -935.8248293 477462.1658
 -935.817218 -935.8249115 477462.1658
 -2730.729094 -904.8978685 477455.3336
 -4298.830548 -841.0179134 477443.9067
 -5501.50301 -737.8692468 477431.7337
 -6228.606431 -584.3911247 477423.0139
 6188.018687 -1505.566908 477421.5255
 5321.937588 -2169.703615 477429.4091
 4163.173438 -2461.809783 477439.5027
 2642.269426 -2642.277574 477449.3775
 904.8925546 -2730.73969 477455.3335
 -904.8908361 -2730.739501 477455.3335
 -2642.267751 -2642.277431 477449.3775
 -4163.171882 -2461.809296 477439.5028
 -5321.936002 -2169.703198 477429.4091
 -6188.017338 -1505.566339 477421.5255
 0 0 0
 4794.715243 -3710.705831 477425.5048
 3900.050974 -3900.06001 477432.1422
 2461.802769 -4163.184459 477439.5027
 841.0135031 -4298.843909 477443.9066
 -841.0114006 -4298.843811 477443.9066
 -2461.800653 -4163.184228 477439.5027
 -3900.048914 -3900.059658 477432.1422
 -4794.713317 -3710.705356 477425.5049
 0 0 -0
 0 0 0
 4584.552181 -4584.56043 477419.9776
 3710.698303 -4794.725407 477425.5048
 2169.698574 -5321.950279 477429.409
 737.866446 -5501.519561 477431.7335
 -737.8639669 -5501.519575 477431.7335
 -2169.6962 -5321.950019 477429.409
 -3710.696039 -4794.725049 477425.5048
 -4584.549968 -4584.559968 477419.9776
 0 0 -0
 0 0 0
 0 0 0
 0 0 0
 1505.563892 -6188.034018 477421.5253
 584.3891496 -6228.623837 477423.0137
 -584.3865088 -6228.623735 477423.0137
 -1505.561264 -6188.033881 477421.5253
 0 0 -0
 0 0 -0
 0 0 -0
 0 0 0
 0 0 0
 0 0 0
 995.0878957 4095.467866 477445.3982
 386.1991174 4121.499463 477446.055
 -386.2000747 4121.499589 477446.0549
 -995.0888382 4095.467989 477445.3982
 0 0 -0
 0 0 -0
 0 0 -0
 0 0 0
 3034.54587 3034.546468 477444.7134
 2454.685856 3171.59163 477447.156
 1434.206475 3519.493729 477448.8742
 487.545826 3637.421821 477449.8955
 -487.5466021 3637.421772 477449.8955
 -1434.207216 3519.494019 477448.8742
 -2454.686456 3171.591988 477447.156
 -3034.54641 3034.546905 477444.7134
 0 0 -0
 0 0 0
 3171.591865 2454.685319 477447.1561
 2578.247028 2578.246366 477450.0776
 1626.406243 2750.911468 477453.3051
 555.4185284 2839.813267 477455.2317
 -555.4190342 2839.813406 477455.2317
 -1626.406638 2750.911695 477453.3051
 -2578.247429 2578.246704 477450.0776
 -3171.592151 2454.68584 477447.156
 0 0 -0
 4095.468706 995.0862311 477445.3982
 3519.494337 1434.20559 477448.8742
 2750.912625 1626.404929 477453.3051
 1744.825023 1744.822831 477457.6237
 597.3455329 1802.78821 477460.2229
 -597.3455609 1802.78833 477460.2229
 -1744.825116 1744.823031 477457.6237
 -2750.912554 1626.405446 477453.3051
 -3519.494309 1434.205975 477448.8742
 -4095.4684 995.0868463 477445.3982
 4121.5007 386.1978935 477446.0549
 3637.422826 487.5439915 477449.8955
 2839.815362 555.4160185 477455.2317
 1802.790595 597.3421278 477460.2229
 617.6169746 617.6127068 477463.2011
 -617.6165669 617.612696 477463.2011
 -1802.790154 597.3424923 477460.2229
 -2839.814918 555.4163145 477455.2317
 -3637.422301 487.5446406 477449.8955
 -4121.500209 386.1984275 477446.0549
 4121.500918 -386.2020814 477446.0549
 3637.423298 -487.5494696 477449.8955
 2839.815271 -555.4235275 477455.2317
 1802.791152 -597.3507664 477460.2229
 617.6171453 -617.6228309 477463.2011
 -617.6162195 -617.6225973 477463.2011
 -1802.790202 -597.3506229 477460.2229
 -2839.814422 -555.4230121 477455.2317
 -3637.422417 -487.5490236 477449.8955
 -4121.500071 -386.2014613 477446.0549
 4095.469757 -995.0916925 477445.3982
 3519.495256 -1434.211922 477448.8742
 2750.91379 -1626.412847 477453.3051
 1744.825589 -1744.832413 477457.6237
 597.3464245 -1802.798405 477460.2228
 -597.3450198 -1802.798412 477460.2228
 -1744.824231 -1744.832093 477457.6237
 -2750.91239 -1626.412477 477453.3051
 -3519.494036 -1434.211386 477448.8742
 -4095.468669 -995.0911173 477445.3982
 0 0 0
 3171.593519 -2454.693679 477447.156
 2578.248472 -2578.255766 477450.0775
 1626.407639 -2750.923125 477453.3051
 555.4196748 -2839.826395 477455.2316
 -555.4178433 -2839.826362 477455.2316
 -1626.405828 -2750.922839 477453.3051
 -2578.246787 -2578.255401 477450.0775
 -3171.591832 -2454.69318 477447.156
 0 0 -0
 0 0 0
 3034.547958 -3034.554361 477444.7133
 2454.687797 -3171.601917 477447.156
 1434.208241 -3519.506303 477448.8741
 487.5474707 -3637.436259 477449.8954
 -487.5453249 -3637.436037 477449.8954
 -1434.206157 -3519.506185 477448.8741
 -2454.685814 -3171.601499 477447.156
 -3034.546077 -3034.553894 477444.7134
 0 0 -0
 0 0 0
 0 0 0
 0 0 0
 995.0897452 -4095.483004 477445.398
 386.2009882 -4121.51525 477446.0548
 -386.1986611 -4121.515258 477446.0548
 -995.0874447 -4095.482805 477445.398
 0 0 -0
 0 0 -0
 0 0 -0
 0 0 0
 0 0 0
 0 0 0
 565.6748418 2330.066585 477457.9794
 219.5221969 2344.554814 477458.1931
 -219.5233268 2344.554836 477458.1931
 -565.6759756 2330.06678 477457.9794
 0 0 -0
 0 0 -0
 0 0 -0
 0 0 0
 1726.594686 1726.593678 477457.7563
 1396.092216 1803.761819 477458.5518
 815.289209 2001.26647 477459.1098
 277.0742361 2067.980761 477459.4412
 -277.0752419 2067.980927 477459.4412
 -815.2900745 2001.26665 477459.1098
 -1396.093053 1803.76224 477458.5518
 -1726.59542 1726.5942 477457.7563
 0 0 -0
 0 0 0
 1803.763243 1396.091391 477458.5518