# OOMMF OVF 2.0
#
# Segment count: 1
#
# Begin: Segment
# Begin: Header
#
# Title: Oxs_MinDriver::Magnetization
# Desc: Oxs vector field output
# Desc:  MIF source file: F:/Bogdan/UNIC/2022/Master_degree/Samples/Cylinder0_5000 1.mif
# Desc:  Iteration: 950, State id: 11055
# Desc:  Stage: 4, Stage iteration: 45
# Desc:  Stage simulation time: 0 s
# Desc:  Total simulation time: -2 s
# meshunit: m
# meshtype: rectangular
# xbase: -8.9999999999999995e-09
# ybase: -8.9999999999999995e-09
# zbase: -2.0999999999999999e-08
# xnodes: 10
# ynodes: 10
# znodes: 22
# xstepsize: 2.0000000000000001e-09
# ystepsize: 2.0000000000000001e-09
# zstepsize: 2.0000000000000001e-09
# xmin: -1e-08
# ymin: -1e-08
# zmin: -2.1999999999999998e-08
# xmax: 1e-08
# ymax: 1e-08
# zmax: 2.2000000000000005e-08
# valuedim: 3
# valuelabels: Magnetization_x Magnetization_y Magnetization_z
# valueunits: A/m A/m A/m
#
# End: Header
#
# Begin: Data Text
 0 0 0
 0 0 0
 0 0 0
 8332.112759 31437.83004 476355.0252
 3138.201738 31657.47778 476403.0091
 -3138.201729 31657.47778 476403.0091
 -8332.11275 31437.83004 476355.0252
 0 0 -0
 0 0 -0
 0 0 -0
 0 0 0
 23347.64715 23347.64648 476320.9486
 18562.71764 24341.43065 476481.6802
 10987.20798 26430.18461 476605.2852
 3714.184237 26997.54807 476685.6496
 -3714.184227 26997.54808 476685.6496
 -10987.20797 26430.1846 476605.2852
 -18562.71763 24341.43066 476481.6802
 -23347.64714 23347.64648 476320.9486
 0 0 -0
 0 0 0
 24341.43133 18562.71696 476481.6802
 19162.49206 19162.4914 476694.3141
 11882.08125 19984.1342 476897.601
 4018.873156 20347.85847 477013.2961
 -4018.873148 20347.85845 477013.2961
 -11882.08124 19984.13422 476897.601
 -19162.49205 19162.49138 476694.3141
 -24341.43132 18562.71697 476481.6802
 0 0 -0
 31437.83072 8332.112086 476355.0252
 26430.18527 10987.20732 476605.2852
 19984.13491 11882.08054 476897.601
 12369.90196 12369.90131 477143.4191
 4181.916958 12585.88438 477279.7695
 -4181.916948 12585.88442 477279.7695
 -12369.90195 12369.90128 477143.4191
 -19984.1349 11882.08056 476897.601
 -26430.18526 10987.20731 476605.2852
 -31437.83071 8332.112088 476355.0252
 31657.47844 3138.201068 476403.0091
 26997.54877 3714.183538 476685.6496
 20347.85912 4018.872499 477013.296
 12585.88512 4181.916225 477279.7695
 4254.022271 4254.021625 477426.0968
 -4254.022263 4254.021589 477426.0968
 -12585.88511 4181.916257 477279.7695
 -20347.85912 4018.872474 477013.296
 -26997.54876 3714.183553 476685.6496
 -31657.47844 3138.201064 476403.0091
 31657.47845 -3138.202411 476403.0091
 26997.54874 -3714.184892 476685.6496
 20347.85917 -4018.873865 477013.296
 12585.88506 -4181.917601 477279.7695
 4254.022335 -4254.023006 477426.0968
 -4254.022325 -4254.02297 477426.0968
 -12585.88505 -4181.917633 477279.7695
 -20347.85916 -4018.87384 477013.296
 -26997.54873 -3714.184907 476685.6496
 -31657.47844 -3138.202406 476403.0091
 31437.83071 -8332.113421 476355.0251
 26430.1853 -10987.20867 476605.2852
 19984.13488 -11882.0819 476897.6009
 12369.90201 -12369.90268 477143.419
 4181.916902 -12585.88576 477279.7695
 -4181.916894 -12585.88579 477279.7695
 -12369.902 -12369.90265 477143.419
 -19984.13487 -11882.08192 476897.6009
 -26430.18528 -10987.20866 476605.2852
 -31437.83071 -8332.113424 476355.0251
 0 0 0
 24341.43132 -18562.71831 476481.6801
 19162.49209 -19162.49275 476694.3141
 11882.08121 -19984.13556 476897.6009
 4018.8732 -20347.85984 477013.296
 -4018.87319 -20347.85981 477013.296
 -11882.08121 -19984.13558 476897.6009
 -19162.49208 -19162.49273 476694.3141
 -24341.43131 -18562.71831 476481.6801
 0 0 -0
 0 0 0
 23347.64716 -23347.64782 476320.9485
 18562.71764 -24341.43199 476481.6801
 10987.208 -26430.18596 476605.2851
 3714.184211 -26997.54942 476685.6495
 -3714.184203 -26997.54943 476685.6495
 -10987.20799 -26430.18594 476605.2851
 -18562.71763 -24341.43199 476481.6801
 -23347.64715 -23347.64782 476320.9485
 0 0 -0
 0 0 0
 0 0 0
 0 0 0
 8332.112758 -31437.83138 476355.0251
 3138.201748 -31657.47911 476403.009
 -3138.201739 -31657.47911 476403.009
 -8332.112749 -31437.83138 476355.0251
 0 0 -0
 0 0 -0
 0 0 -0
 0 0 0
 0 0 0
 0 0 0
 6973.608885 27156.70525 476640.067
 2685.395425 27360.01855 476671.8885
 -2685.395416 27360.01856 476671.8885
 -6973.608877 27156.70524 476640.067
 0 0 -0
 0 0 -0
 0 0 -0
 0 0 0
 20131.95175 20131.95109 476614.3938
 16219.77426 21067.92702 476723.1195
 9577.040942 23172.91293 476805.1674
 3257.520636 23818.5401 476858.4035
 -3257.520628 23818.54005 476858.4035
 -9577.04093 23172.91297 476805.1674
 -16219.77425 21067.927 476723.1195
 -20131.95174 20131.9511 476614.3938
 0 0 -0
 0 0 0
 21067.92765 16219.77362 476723.1195
 16904.82353 16904.82282 476865.1017
 10572.19759 17801.00705 477014.9097
 3591.385602 18219.69299 477102.7311
 -3591.385591 18219.69306 477102.7311
 -10572.19759 17801.00699 477014.9097
 -16904.82351 16904.82286 476865.1017
 -21067.92764 16219.77361 476723.1195
 0 0 -0
 27156.70589 6973.608242 476640.0669
 23172.91364 9577.040243 476805.1674
 17801.00764 10572.197 477014.9097
 11119.86192 11119.86114 477204.9546
 3774.698796 11366.08177 477313.7701
 -3774.698791 11366.08167 477313.7701
 -11119.8619 11119.86123 477204.9546
 -17801.00764 10572.19694 477014.9097
 -23172.91362 9577.040277 476805.1674
 -27156.70589 6973.608234 476640.0669
 27360.01922 2685.394753 476671.8885
 23818.5407 3257.520022 476858.4035
 18219.69375 3591.38485 477102.7311
 11366.08232 3774.698239 477313.7701
 3856.472388 3856.471575 477432.8503
 -3856.472376 3856.47168 477432.8503
 -11366.08232 3774.698145 477313.7701
 -18219.69373 3591.384921 477102.7311
 -23818.5407 3257.519979 476858.4035
 -27360.01921 2685.394767 476671.8885
 27360.0192 -2685.39606 476671.8885
 23818.54078 -3257.521339 476858.4035
 18219.69362 -3591.386178 477102.7311
 11366.08248 -3774.699577 477313.7701
 3856.47221 -3856.472917 477432.8503
 -3856.472205 -3856.473023 477432.8503
 -11366.08246 -3774.699483 477313.7701
 -18219.69362 -3591.386249 477102.7311
 -23818.54076 -3257.521296 476858.4035
 -27360.01919 -2685.396074 476671.8885
 27156.70591 -6973.609542 476640.0669
 23172.91358 -9577.041555 476805.1674
 17801.00775 -10572.19833 477014.9097
 11119.86178 -11119.86248 477204.9545
 3774.698954 -11366.0831 477313.7701
 -3774.698943 -11366.08301 477313.7701
 -11119.86177 -11119.86256 477204.9545
 -17801.00773 -10572.19827 477014.9097
 -23172.91357 -9577.041589 476805.1674
 -27156.7059 -6973.609534 476640.0669
 0 0 0
 21067.92769 -16219.77494 476723.1195
 16904.82346 -16904.82413 476865.1016
 10572.1977 -17801.00837 477014.9097
 3591.385482 -18219.69431 477102.7311
 -3591.385476 -18219.69438 477102.7311
 -10572.19769 -17801.00831 477014.9097
 -16904.82345 -16904.82417 476865.1016
 -21067.92767 -16219.77492 476723.1195
 0 0 -0
 0 0 0
 20131.95175 -20131.95239 476614.3937
 16219.7743 -21067.92832 476723.1194
 9577.040885 -23172.91424 476805.1674
 3257.520709 -23818.54141 476858.4034
 -3257.520699 -23818.54137 476858.4035
 -9577.040879 -23172.91428 476805.1674
 -16219.77429 -21067.9283 476723.1194
 -20131.95174 -20131.9524 476614.3937
 0 0 -0
 0 0 0
 0 0 0
 0 0 0
 6973.608904 -27156.70656 476640.0669
 2685.395404 -27360.01985 476671.8885
 -2685.395396 -27360.01986 476671.8885
 -6973.608895 -27156.70655 476640.0669
 0 0 -0
 0 0 -0
 0 0 -0
 0 0 0
 0 0 0
 0 0 0
 5550.879171 22026.30373 476923.3701
 2150.712112 22197.90339 476942.8675
 -2150.712104 22197.90337 476942.8675
 -5550.879162 22026.30374 476923.3701
 0 0 -0
 0 0 -0
 0 0 -0
 0 0 0
 16322.1076 16322.10699 476905.7023
 13220.16245 17116.30515 476973.9308
 7794.271579 18935.58548 477024.6998
 2656.736619 19535.78626 477056.7745
 -2656.73661 19535.78633 477056.7745
 -7794.271576 18935.58543 477024.6998
 -13220.16244 17116.30517 476973.9308
 -16322.1076 16322.10698 476905.7023
 0 0 -0
 0 0 0
 17116.3058 13220.16179 476973.9308
 13866.22203 13866.22148 477061.1356
 8728.483023 14712.65517 477157.4401
 2975.813255 15127.60314 477215.016
 -2975.81325 15127.60303 477215.016
 -8728.483007 14712.65526 477157.4401
 -13866.22203 13866.22141 477061.1356
 -17116.30579 13220.16182 476973.9308
 0 0 -0
 22026.30437 5550.878533 476923.3701
 18935.58605 7794.271006 477024.6998
 14712.65592 8728.482281 477157.4401
 9269.119618 9269.119129 477284.0225
 3159.991095 9520.528619 477358.6129
 -3159.991082 9520.528763 477358.6129
 -9269.119622 9269.119004 477284.0225
 -14712.65589 8728.482374 477157.4401
 -18935.58605 7794.270953 477024.6998
 -22026.30436 5550.878546 476923.3701
 22197.90399 2150.711504 476942.8674
 19535.78699 2656.735916 477056.7745
 15127.60363 2975.812737 477215.0159
 9520.529447 3159.990283 477358.6129
 3244.509382 3244.508941 477441.9521
 -3244.50938 3244.508778 477441.9521
 -9520.529425 3159.990427 477358.6129
 -15127.60364 2975.812628 477215.0159
 -19535.78697 2656.735982 477056.7745
 -22197.90399 2150.711483 476942.8674
 22197.90403 -2150.712757 476942.8674
 19535.78687 -2656.737176 477056.7745
 15127.60382 -2975.814009 477215.0159
 9520.52921 -3159.99156 477358.6129
 3244.50964 -3244.510224 477441.9521
 -3244.509627 -3244.51006 477441.9521
 -9520.529216 -3159.991705 477358.6129
 -15127.60379 -2975.813899 477215.0159
 -19535.78688 -2656.737242 477056.7745
 -22197.90402 -2150.712736 476942.8674
 22026.30436 -5550.87978 476923.3701
 18935.58614 -7794.272264 477024.6998
 14712.65576 -8728.483546 477157.4401
 9269.119827 -9269.120405 477284.0225
 3159.990867 -9520.529896 477358.6129
 -3159.990864 -9520.530041 477358.6128
 -9269.119807 -9269.120278 477284.0225
 -14712.65577 -8728.48364 477157.4401
 -18935.58613 -7794.272211 477024.6998
 -22026.30435 -5550.879793 476923.3701
 0 0 0
 17116.30577 -13220.16305 476973.9308
 13866.22215 -13866.22274 477061.1355
 8728.482873 -14712.65643 477157.4401
 2975.813429 -15127.60441 477215.0159
 -2975.813418 -15127.6043 477215.0159
 -8728.482873 -14712.65652 477157.4401
 -13866.22213 -13866.22267 477061.1355
 -17116.30576 -13220.16308 476973.9308
 0 0 -0
 0 0 0
 16322.10764 -16322.10824 476905.7023
 13220.16242 -17116.3064 476973.9308
 7794.271669 -18935.58674 477024.6998
 2656.736516 -19535.78752 477056.7745
 -2656.73651 -19535.78759 477056.7745
 -7794.271657 -18935.58669 477024.6998
 -13220.16241 -17116.30642 476973.9308
 -16322.10763 -16322.10823 476905.7023
 0 0 -0
 0 0 0
 0 0 0
 0 0 0
 5550.879157 -22026.30498 476923.3701
 2150.712147 -22197.90465 476942.8674
 -2150.712139 -22197.90463 476942.8674
 -5550.879149 -22026.305 476923.3701
 0 0 -0
 0 0 -0
 0 0 -0
 0 0 0
 0 0 0
 0 0 0
 4292.238891 17216.85931 477134.1821
 1665.316699 17350.73142 477145.7326
 -1665.316691 17350.73145 477145.7326
 -4292.238885 17216.85929 477134.1821
 0 0 -0
 0 0 -0
 0 0 -0
 0 0 0
 12759.15502 12759.15442 477122.9184
 10349.40936 13385.84575 477164.1019
 6093.2997 14841.52312 477194.3757
 2077.611049 15337.07332 477213.0855
 -2077.611045 15337.07324 477213.0855
 -6093.299687 14841.52319 477194.3757
 -10349.40935 13385.84572 477164.1019
 -12759.15501 12759.15443 477122.9184
 0 0 -0
 0 0 0
 13385.8463 10349.40879 477164.1019
 10886.26442 10886.26374 477215.7267
 6875.182451 11598.10601 477273.5977
 2348.681204 11957.07889 477308.4781
 -2348.681192 11957.07903 477308.4781
 -6875.182455 11598.10589 477273.5977
 -10886.2644 10886.26382 477215.7267
 -13385.8463 10349.40876 477164.1019
 0 0 -0
 17216.85989 4292.238314 477134.1821
 14841.5238 6093.299037 477194.3757
 11598.10648 6875.181968 477273.5977
 7344.845491 7344.844711 477351.0006
 2511.245025 7569.207506 477397.3943
 -2511.245024 7569.207329 477397.3943
 -7344.845467 7344.844866 477351.0006
 -11598.10649 6875.181854 477273.5977
 -14841.52378 6093.299102 477194.3757
 -17216.85989 4292.238298 477134.1821
 17350.73206 1665.316078 477145.7326
 15337.07382 2077.610527 477213.0855
 11957.07967 2348.680462 477308.4781
 7569.2079 2511.244609 477397.3943
 2587.8001 2587.799254 477449.9742
 -2587.800085 2587.799455 477449.9742
 -7569.207912 2511.244431 477397.3943
 -11957.07964 2348.680598 477308.4781
 -15337.07383 2077.610445 477213.0855
 -17350.73204 1665.316104 477145.7326
 17350.73202 -1665.317268 477145.7326
 15337.07396 -2077.611723 477213.0855
 11957.07946 -2348.681665 477308.4781
 7569.208168 -2511.24582 477397.3942
 2587.799812 -2587.800467 477449.9742
 -2587.799812 -2587.800669 477449.9742
 -7569.208141 -2511.24564 477397.3942
 -11957.07947 -2348.681802 477308.4781
 -15337.07393 -2077.61164 477213.0855
 -17350.73201 -1665.317294 477145.7326
 17216.85992 -4292.239498 477134.1821
 14841.5237 -6093.30023 477194.3757
 11598.10666 -6875.183171 477273.5977
 7344.845259 -7344.845916 477351.0006
 2511.24528 -7569.208718 477397.3942
 -2511.245266 -7569.208537 477397.3942
 -7344.845269 -7344.846074 477351.0006
 -11598.10663 -6875.183054 477273.5977
 -14841.52371 -6093.300296 477194.3757
 -17216.85991 -4292.239482 477134.1821
 0 0 0
 13385.84637 -10349.40999 477164.1019
 10886.26431 -10886.26494 477215.7267
 6875.182627 -11598.10721 477273.5977
 2348.681011 -11957.0801 477308.4781
 -2348.681008 -11957.08023 477308.4781
 -6875.182608 -11598.10709 477273.5977
 -10886.26431 -10886.26502 477215.7267
 -13385.84635 -10349.40996 477164.1019
 0 0 -0
 0 0 0
 12759.15502 -12759.15561 477122.9183
 10349.40942 -13385.84694 477164.1019
 6093.299608 -14841.52432 477194.3756
 2077.611168 -15337.07452 477213.0855
 -2077.611158 -15337.07444 477213.0855
 -6093.299606 -14841.52439 477194.3756
 -10349.40941 -13385.84691 477164.1019
 -12759.15502 -12759.15562 477122.9183
 0 0 -0
 0 0 0
 0 0 0
 0 0 0
 4292.238921 -17216.86051 477134.1821
 1665.316665 -17350.73262 477145.7326
 -1665.316658 -17350.73264 477145.7326
 -4292.238913 -17216.86049 477134.1821
 0 0 -0
 0 0 -0
 0 0 -0
 0 0 0
 0 0 0
 0 0 0
 3247.396918 13111.95759 477272.8803
 1260.207528 13210.9846 477279.5335
 -1260.207522 13210.98457 477279.5335
 -3247.39691 13111.95761 477272.8803
 0 0 -0
 0 0 -0
 0 0 -0
 0 0 0
 9719.123041 9719.122497 477266.1193
 7882.758161 10191.49203 477290.1287
 4634.394626 11307.54319 477307.5876
 1579.67128 11691.27636 477318.2272
 -1579.671271 11691.27645 477318.2272
 -4634.394627 11307.54312 477307.5876
 -7882.758149 10191.49207 477290.1287
 -9719.123037 9719.122485 477266.1193
 0 0 -0
 0 0 0
 10191.49263 7882.757567 477290.1287
 8297.876287 8297.875803 477319.7689
 5246.295399 8855.301227 477353.0468
 1793.642084 9140.410106 477373.1319
 -1793.642084 9140.409962 477373.1319
 -5246.295378 8855.301349 477353.0468
 -8297.876295 8297.875719 477319.7689
 -10191.49262 7882.757601 477290.1287
 0 0 -0
 13111.95818 3247.396345 477272.8803
 11307.54368 4634.39412 477307.5876
 8855.301926 5246.294717 477353.0468
 5621.177005 5621.176602 477397.8174
 1924.744429 5803.110677 477424.8533
 -1924.744415 5803.110866 477424.8533
 -5621.177019 5621.176435 477397.8174
 -8855.301895 5246.29484 477353.0468
 -11307.54369 4634.394051 477307.5876
 -13111.95817 3247.396362 477272.8803
 13210.98513 1260.206985 477279.5334
 11691.27703 1579.670643 477318.2272
 9140.410511 1793.641641 477373.1319
 5803.111461 1924.743672 477424.8533
 1987.503785 1987.503441 477455.7267
 -1987.503788 1987.503225 477455.7267
 -5803.11143 1924.743864 477424.8533
 -9140.410534 1793.641495 477373.1319
 -11691.277 1579.670731 477318.2272
 -13210.98513 1260.206957 477279.5334
 13210.98518 -1260.20811 477279.5334
 11691.27691 -1579.671772 477318.2272
 9140.410716 -1793.642777 477373.1319
 5803.111209 -1924.744812 477424.8533
 1987.504054 -1987.504585 477455.7267
 -1987.504037 -1987.504366 477455.7267
 -5803.111227 -1924.745005 477424.8533
 -9140.41068 -1793.642629 477373.1319
 -11691.27692 -1579.671861 477318.2272
 -13210.98516 -1260.208082 477279.5334
 13111.95816 -3247.397465 477272.8803
 11307.54379 -4634.395249 477307.5875
 8855.301757 -5246.29585 477353.0468
 5621.177228 -5621.177742 477397.8174
 1924.744193 -5803.111815 477424.8533
 -1924.744195 -5803.112011 477424.8533
 -5621.177201 -5621.177571 477397.8174
 -8855.301775 -5246.295976 477353.0468
 -11307.54376 -4634.395178 477307.5875
 -13111.95816 -3247.397482 477272.8803
 0 0 0
 10191.49259 -7882.758698 477290.1286
 8297.876411 -8297.876936 477319.7689
 5246.29524 -8855.30236 477353.0468
 1793.642265 -9140.411247 477373.1319
 -1793.642253 -9140.411096 477373.1319
 -5246.295248 -8855.302488 477353.0468
 -8297.876389 -8297.876849 477319.7689
 -10191.49259 -7882.758734 477290.1286
 0 0 -0
 0 0 0
 9719.12308 -9719.123624 477266.1192
 7882.758126 -10191.49316 477290.1286
 4634.394722 -11307.54433 477307.5875
 1579.671174 -11691.27749 477318.2271
 -1579.671171 -11691.27758 477318.2271
 -4634.394709 -11307.54425 477307.5875
 -7882.758125 -10191.4932 477290.1286
 -9719.123071 -9719.123611 477266.1192
 0 0 -0
 0 0 0
 0 0 0
 0 0 0
 3247.396904 -13111.95873 477272.8803
 1260.207565 -13210.98573 477279.5334
 -1260.207557 -13210.9857 477279.5334
 -3247.396899 -13111.95874 477272.8803
 0 0 -0
 0 0 -0
 0 0 -0
 0 0 0
 0 0 0
 0 0 0
 2408.949685 9767.94802 477357.9951
 934.7652112 9838.687582 477361.7054
 -934.7652047 9838.687608 477361.7054
 -2408.949681 9767.948004 477357.9951
 0 0 -0
 0 0 -0
 0 0 -0
 0 0 0
 7242.130862 7242.130328 477354.1394
 5869.761567 7587.329075 477367.6252
 3446.157091 8418.415234 477377.3409
 1174.020334 8704.106876 477383.2124
 -1174.020332 8704.106793 477383.2124
 -3446.157077 8418.4153 477377.3409
 -5869.761568 7587.329042 477367.6252
 -7242.130854 7242.13034 477354.1394
 0 0 -0
 0 0 0
 7587.329575 5869.761061 477367.6252
 6176.924456 6176.923858 477384.0828
 3905.051928 6594.10631 477402.4923
 1335.180283 6808.735009 477413.5835
 -1335.180271 6808.735147 477413.5835
 -3905.051939 6594.106192 477402.4923
 -6176.924433 6176.923938 477384.0828
 -7587.329579 5869.761027 477367.6252
 0 0 -0
 9767.948539 2408.949166 477357.9951
 8418.415834 3446.156513 477377.3409
 6594.106738 3905.051482 477402.4923
 4188.391621 4188.390944 477427.2573
 1434.840049 4326.917353 477442.2377
 -1434.840053 4326.91717 477442.2377
 -4188.391591 4188.391104 477427.2573
 -6594.10676 3905.051363 477402.4923
 -8418.415808 3446.15658 477377.3409
 -9767.948539 2408.94915 477357.9951
 9838.688148 934.7646638 477361.7053
 8704.107323 1174.019851 477383.2124
 6808.735692 1335.179648 477413.5835
 4326.917712 1434.839658 477442.2377
 1482.939303 1482.938567 477459.3942
 -1482.939287 1482.938776 477459.3942
 -4326.917735 1434.839473 477442.2377
 -6808.735653 1335.179789 477413.5835
 -8704.107344 1174.019766 477383.2124
 -9838.688133 934.7646907 477361.7053
 9838.688116 -934.7657258 477361.7053
 8704.107432 -1174.020917 477383.2124
 6808.735526 -1335.180719 477413.5835
 4326.917917 -1434.840733 477442.2377
 1482.939094 -1482.939643 477459.3942
 -1482.939099 -1482.939855 477459.3942
 -4326.917882 -1434.840546 477442.2377
 -6808.735554 -1335.180861 477413.5835
 -8704.1074 -1174.020831 477383.2124
 -9838.68812 -934.765753 477361.7053
 9767.948568 -2408.950225 477357.995
 8418.415755 -3446.157579 477377.3409
 6594.106884 -3905.052553 477402.4923
 4188.391445 -4188.392016 477427.2573
 1434.840235 -4326.918432 477442.2377
 -1434.84022 -4326.918242 477442.2377
 -4188.391464 -4188.392182 477427.2573
 -6594.106851 -3905.05243 477402.4923
 -8418.41577 -3446.157648 477377.3409
 -9767.948557 -2408.950208 477357.995
 0 0 0
 7587.329629 -5869.76213 477367.6252
 6176.92437 -6176.924926 477384.0828
 3905.052063 -6594.107385 477402.4923
 1335.180144 -6808.736079 477413.5835
 -1335.180145 -6808.736225 477413.5835
 -3905.052041 -6594.10726 477402.4923
 -6176.924382 -6176.92501 477384.0828
 -7587.329614 -5869.762095 477367.6252
 0 0 -0
 0 0 0
 7242.13087 -7242.131394 477354.1394
 5869.761619 -7587.330141 477367.6252
 3446.157024 -8418.416303 477377.3409
 1174.02042 -8704.107951 477383.2124
 -1174.020411 -8704.107861 477383.2124
 -3446.157027 -8418.416374 477377.3409
 -5869.761607 -7587.330106 477367.6252
 -7242.130867 -7242.131406 477354.1394
 0 0 -0
 0 0 0
 0 0 0
 0 0 0
 2408.94971 -9767.949095 477357.995
 934.7651877 -9838.688652 477361.7053
 -934.7651831 -9838.688681 477361.7053
 -2408.949702 -9767.949077 477357.995
 0 0 -0
 0 0 -0
 0 0 -0
 0 0 0
 0 0 0
 0 0 0
 1746.972442 7103.666216 477407.9569
 677.7879722 7152.849449 477409.9377
 -677.7879688 7152.849426 477409.9377
 -1746.972435 7103.66623 477407.9569
 0 0 -0
 0 0 -0
 0 0 -0
 0 0 0
 5267.990328 5267.989837 477405.8733
 4266.114863 5513.660965 477413.1032
 2501.571779 6116.121576 477418.2721
 851.7346213 6322.282641 477421.3805
 -851.7346127 6322.282713 477421.3805
 -2501.571783 6116.121518 477418.2721
 -4266.114851 5513.660994 477413.1032
 -5267.990327 5267.989827 477405.8733
 0 0 -0
 0 0 0
 5513.661486 4266.114345 477413.1032
 4485.976762 4485.976302 477421.8505
 2834.326452 4787.517367 477431.5842
 968.8122337 4942.86622 477437.4313
 -968.8122366 4942.8661 477437.4313
 -2834.326429 4787.517469 477431.5842
 -4485.976778 4485.976232 477421.8505
 -5513.661471 4266.114374 477413.1032
 0 0 -0
 7103.666737 1746.971937 477407.9569
 6116.122035 2501.571299 477418.2721
 4787.517952 2834.325891 477431.5842
 3040.005014 3040.004601 477444.644
 1041.359357 3140.786611 477452.5341
 -1041.359342 3140.78677 477452.5341
 -3040.005036 3040.004461 477444.644
 -4787.517916 2834.325994 477431.5842
 -6116.122053 2501.571241 477418.2721
 -7103.666726 1746.971951 477407.9569
 7152.849935 677.7874754 477409.9377
 6322.283221 851.7340899 477421.3805
 4942.866619 968.8117821 477437.4313
 3140.787257 1041.358749 477452.5341
 1076.470245 1076.469876 477461.573
 -1076.470253 1076.469694 477461.573
 -3140.78722 1041.35891 477452.5341
 -4942.866653 968.8116593 477437.4313
 -6322.283187 851.734164 477421.3805
 -7152.849941 677.7874519 477409.9377
 7152.849964 -677.7884809 477409.9377
 6322.283144 -851.7350989 477421.3805
 4942.866741 -968.8127951 477437.4313
 3140.787118 -1041.359764 477452.5341
 1076.47038 -1076.470895 477461.573
 -1076.470363 -1076.47071 477461.573
 -3140.787145 -1041.359928 477452.5341
 -4942.866698 -968.8126709 477437.4313
 -6322.283168 -851.7351738 477421.3805
 -7152.849949 -677.7884573 477409.9377
 7103.666729 -1746.972939 477407.9569
 6116.122103 -2501.572309 477418.272
 4787.517856 -2834.326903 477431.5842
 3040.005138 -3040.005618 477444.6439
 1041.359239 -3140.787625 477452.5341
 -1041.359245 -3140.787791 477452.5341
 -3040.005106 -3040.005473 477444.6439
 -4787.517883 -2834.32701 477431.5842
 -6116.122076 -2501.572248 477418.272
 -7103.66673 -1746.972954 477407.9569
 0 0 0
 5513.661469 -4266.115359 477413.1032
 4485.976839 -4485.977315 477421.8505
 2834.326369 -4787.51838 477431.5842
 968.8123247 -4942.86724 477437.4313
 -968.8123126 -4942.867112 477437.4313
 -2834.326383 -4787.518489 477431.5842
 -4485.976815 -4485.977241 477421.8505
 -5513.661475 -4266.115389 477413.1032
 0 0 -0
 0 0 0
 5267.99036 -5267.990848 477405.8733
 4266.114849 -5513.661975 477413.1032
 2501.571833 -6116.122593 477418.272
 851.7345701 -6322.283654 477421.3805
 -851.7345695 -6322.283732 477421.3805
 -2501.57182 -6116.122531 477418.272
 -4266.114852 -5513.662005 477413.1032
 -5267.990352 -5267.990838 477405.8733
 0 0 -0
 0 0 0
 0 0 0
 0 0 0
 1746.972438 -7103.667235 477407.9569
 677.787992 -7152.850467 477409.9377
 -677.7879863 -7152.850442 477409.9377
 -1746.972435 -7103.66725 477407.9569
 0 0 -0
 0 0 -0
 0 0 -0
 0 0 0
 0 0 0
 0 0 0
 1224.628445 4988.938277 477436.3644
 475.0501429 5022.070014 477437.3513
 -475.0501381 5022.070032 477437.3513
 -1224.628444 4988.938266 477436.3644
 0 0 -0
 0 0 -0
 0 0 -0
 0 0 0
 3700.482191 3700.481716 477435.3193
 2994.312312 3869.556604 477438.93
 1754.02846 4290.996261 477441.4959
 596.9014873 4434.38241 477443.0346
 -596.901488 4434.382352 477443.0346
 -1754.028446 4290.996307 477441.4959
 -2994.312316 3869.556581 477438.93
 -3700.482184 3700.481724 477435.3193
 0 0 -0
 0 0 0
 3869.557069 2994.311839 477438.93
 3145.977474 3145.976974 477443.2709
 1986.193953 3355.662155 477448.0766
 678.634339 3463.608417 477450.9547
 -678.6343274 3463.608513 477450.9547
 -1986.193969 3355.662074 477448.0766
 -3145.977449 3145.977029 477443.2709
 -3869.557076 2994.311816 477438.93
 0 0 -0
 4988.938753 1224.62797 477436.3644
 4290.996774 1754.027977 477441.4959
 3355.662591 1986.193493 477448.0766
 2129.402727 2129.402193 477454.5032
 729.2033681 2199.544913 477458.3768
 -729.2033758 2199.544787 477458.3768
 -2129.402694 2129.402303 477454.5032
 -3355.662621 1986.193411 477448.0766
 -4290.996746 1754.028023 477441.4959
 -4988.938756 1224.627959 477436.3644
 5022.070516 475.0496657 477437.3513
 4434.382845 596.9010062 477443.0346
 3463.608977 678.6338416 477450.9547
 2199.54531 729.2029296 477458.3768
 753.6744031 753.6738315 477462.8103
 -753.6743861 753.6739747 477462.8103
 -2199.545341 729.2028031 477458.3768
 -3463.608932 678.6339379 477450.9547
 -4434.382873 596.9009481 477443.0346
 -5022.070501 475.049684 477437.3513
 5022.070501 -475.050623 477437.3513
 4434.3829 -596.9019662 477443.0346
 3463.608902 -678.6348052 477450.9547
 2199.545391 -729.2038956 477458.3768
 753.6743385 -753.6747986 477462.8103
 -753.6743482 -753.6749426 477462.8103
 -2199.545353 -729.2037683 477458.3768
 -3463.60894 -678.634902 477450.9547
 -4434.382865 -596.9019079 477443.0346
 -5022.070508 -475.0506414 477437.3513
 4988.938771 -1224.628924 477436.3644
 4290.996739 -1754.028937 477441.4959
 3355.66266 -1986.194456 477448.0766
 2129.402661 -2129.403159 477454.5032
 729.2034258 -2199.545881 477458.3768
 -729.2034107 -2199.545753 477458.3768
 -2129.402687 -2129.403271 477454.5032
 -3355.662622 -1986.194373 477448.0766
 -4290.99676 -1754.028984 477441.4959
 -4988.938761 -1224.628913 477436.3644
 0 0 0
 3869.557102 -2994.312804 477438.93
 3145.977442 -3145.977939 477443.2709
 1986.194007 -3355.663122 477448.0766
 678.6342984 -3463.609383 477450.9547
 -678.6343027 -3463.609482 477450.9547
 -1986.193984 -3355.663038 477448.0766
 -3145.977459 -3145.977995 477443.2709
 -3869.557087 -2994.31278 477438.93
 0 0 -0
 0 0 0
 3700.482207 -3700.48268 477435.3193
 2994.312341 -3869.557566 477438.93
 1754.02844 -4290.997228 477441.4959
 596.9015144 -4434.383379 477443.0346
 -596.9015065 -4434.383319 477443.0346
 -1754.028446 -4290.997276 477441.4959
 -2994.31233 -3869.557542 477438.93
 -3700.482207 -3700.482688 477435.3193
 0 0 -0
 0 0 0
 0 0 0
 0 0 0
 1224.628459 -4988.939249 477436.3644
 475.0501383 -5022.070983 477437.3513
 -475.0501358 -5022.071002 477437.3513
 -1224.628453 -4988.939238 477436.3644
 0 0 -0
 0 0 -0
 0 0 -0
 0 0 0
 0 0 0
 0 0 0
 805.5171142 3285.447737 477452.0167
 312.424927 3306.530697 477452.4485
 -312.4249256 3306.530683 477452.4485
 -805.5171095 3285.447745 477452.0167
 0 0 -0
 0 0 -0
 0 0 -0
 0 0 0
 2437.338394 2437.337941 477451.5578
 1970.912883 2546.840184 477453.1395
 1153.64759 2823.377291 477454.2585
 392.4264958 2916.962674 477454.9284
 -392.4264887 2916.962716 477454.9284
 -1153.647598 2823.377257 477454.2585
 -1970.912872 2546.840201 477453.1395
 -2437.338395 2437.337935 477451.5578
 0 0 -0
 0 0 0
 2546.840644 1970.912428 477453.1395
 2069.209123 2069.208667 477455.0325
 1305.482879 2205.946919 477457.1193
 445.8800825 2276.239035 477458.366
 -445.8800882 2276.238965 477458.366
 -1305.482856 2205.946978 477457.1193
 -2069.209143 2069.208627 477455.0325
 -2546.84063 1970.912444 477453.1395
 0 0 -0
 3285.448206 805.516663 477452.0167
 2823.377736 1153.64712 477454.2585
 2205.947402 1305.482424 477457.1193
 1398.862918 1398.862471 477459.9016
 478.8623593 1444.534088 477461.5747
 -478.8623448 1444.534178 477461.5747
 -1398.862945 1398.862392 477459.9016
 -2205.947365 1305.482482 477457.1193
 -2823.377759 1153.647088 477454.2585
 -3285.448196 805.5166708 477452.0167
 3306.531151 312.4244599 477452.4485
 2916.963172 392.4260559 477454.9284
 2276.239452 445.879602 477458.366
 1444.534602 478.8618912 477461.5747
 494.8021918 494.8017681 477463.4872
 -494.8022031 494.8016686 477463.4872
 -1444.534564 478.8619791 477461.5747
 -2276.239492 445.8795352 477458.366
 -2916.963136 392.426096 477454.9284
 -3306.53116 312.4244472 477452.4485
 3306.531166 -312.425378 477452.4485
 2916.963138 -392.4269772 477454.9284
 2276.239501 -445.880525 477458.366
 1444.534562 -478.8628181 477461.5747
 494.802212 -494.8026944 477463.4872
 -494.8021954 -494.8025965 477463.4872
 -1444.534595 -478.8629045 477461.5747
 -2276.239456 -445.8804593 477458.366
 -2916.963169 -392.4270169 477454.9284
 -3306.531152 -312.4253654 477452.4485
 3285.448206 -805.5175788 477452.0167
 2823.37777 -1153.648041 477454.2585
 2205.947369 -1305.483351 477457.1193
 1398.862955 -1398.863395 477459.9016
 478.8623436 -1444.535018 477461.5747
 -478.8623527 -1444.535103 477461.5747
 -1398.862922 -1398.86332 477459.9016
 -2205.947401 -1305.483406 477457.1193
 -2823.377742 -1153.64801 477454.2585
 -3285.448211 -805.5175863 477452.0167
 0 0 0
 2546.840645 -1970.913355 477453.1395
 2069.209157 -2069.20959 477455.0325
 1305.482861 -2205.947848 477457.1193
 445.8800959 -2276.23996 477458.366
 -445.8800849 -2276.239896 477458.366
 -1305.482879 -2205.947903 477457.1193
 -2069.209132 -2069.209553 477455.0325
 -2546.840654 -1970.91337 477453.1395
 0 0 -0
 0 0 0
 2437.33842 -2437.338866 477451.5578
 1970.912887 -2546.841109 477453.1395
 1153.647609 -2823.378218 477454.2585
 392.4264917 -2916.963605 477454.9284
 -392.4264935 -2916.963644 477454.9284
 -1153.647596 -2823.378187 477454.2585
 -1970.912893 -2546.841124 477453.1395
 -2437.338413 -2437.33886 477451.5578
 0 0 -0
 0 0 0
 0 0 0
 0 0 0
 805.5171197 -3285.448671 477452.0167
 312.4249319 -3306.531627 477452.4485
 -312.424928 -3306.531615 477452.4485
 -805.5171191 -3285.448678 477452.0167
 0 0 -0
 0 0 -0
 0 0 -0
 0 0 0
 0 0 0
 0 0 0
 456.4580403 1863.044719 477460.147
 177.0205161 1874.714188 477460.2867
 -177.0205132 1874.714197 477460.2867
 -456.4580409 1863.044713 477460.147
 0 0 -0
 0 0 -0
 0 0 -0
 0 0 0
 1382.275793 1382.275356 477459.9982
 1117.235472 1443.644813 477460.5104
 653.6236745 1600.039544 477460.8716
 222.2741973 1652.75706 477461.0877
 -222.2742002 1652.757031 477461.0877
 -653.6236624 1600.039567 477460.8716
 -1117.235478 1443.644802 477460.5104
 -1382.275788 1382.27536 477459.9982
 0 0 -0
 0 0 0
 1443.645255 1117.235022 477460.5104