# OOMMF OVF 2.0
#
# Segment count: 1
#
# Begin: Segment
# Begin: Header
#
# Title: Oxs_MinDriver::Magnetization
# Desc: Oxs vector field output
# Desc:  MIF source file: F:/Bogdan/UNIC/2022/Master_degree/Samples/Cylinder11_7.mif
# Desc:  Iteration: 913, State id: 2064
# Desc:  Stage: 4, Stage iteration: 38
# Desc:  Stage simulation time: 0 s
# Desc:  Total simulation time: -2 s
# meshunit: m
# meshtype: rectangular
# xbase: -3.5000000000000003e-09
# ybase: -3.5000000000000003e-09
# zbase: -9.5000000000000007e-09
# xnodes: 8
# ynodes: 8
# znodes: 20
# xstepsize: 1.0000000000000001e-09
# ystepsize: 1.0000000000000001e-09
# zstepsize: 1.0000000000000001e-09
# xmin: -4.0000000000000002e-09
# ymin: -4.0000000000000002e-09
# zmin: -1e-08
# xmax: 4.0000000000000002e-09
# ymax: 4.0000000000000002e-09
# zmax: 1e-08
# valuedim: 3
# valuelabels: Magnetization_x Magnetization_y Magnetization_z
# valueunits: A/m A/m A/m
#
# End: Header
#
# Begin: Data Text
 0 0 0
 0 0 0
 2294.917407 6612.683596 477412.6905
 869.6003188 6698.263056 477416.2213
 -869.6043887 6698.263058 477416.2213
 -2294.921471 6612.683599 477412.6905
 0 0 -0
 0 0 -0
 0 0 0
 4615.473644 4615.47528 477419.3818
 2940.188244 5162.517068 477427.0363
 1016.823274 5326.677124 477433.2036
 -1016.82735 5326.677122 477433.2036
 -2940.192317 5162.517069 477427.0363
 -4615.477714 4615.47528 477419.3817
 0 0 -0
 6612.681963 2294.919038 477412.6905
 5162.515444 2940.189869 477427.0363
 3256.209489 3256.211143 477441.7928
 1112.244416 3374.841605 477450.7772
 -1112.248499 3374.84161 477450.7772
 -3256.213567 3256.211138 477441.7927
 -5162.519517 2940.189872 477427.0363
 -6612.686031 2294.91904 477412.6905
 6698.26143 869.6019473 477416.2213
 5326.675474 1016.824922 477433.2036
 3374.83999 1112.246033 477450.7772
 1152.520536 1152.522204 477461.218
 -1152.524622 1152.522194 477461.218
 -3374.844073 1112.24604 477450.7772
 -5326.679549 1016.824917 477433.2035
 -6698.265497 869.6019502 477416.2213
 6698.261421 -869.6027515 477416.2213
 5326.675503 -1016.825728 477433.2036
 3374.839948 -1112.246839 477450.7772
 1152.520585 -1152.523012 477461.218
 -1152.524671 -1152.523 477461.218
 -3374.84403 -1112.246849 477450.7772
 -5326.679578 -1016.825721 477433.2035
 -6698.265488 -869.6027548 477416.2213
 6612.68197 -2294.919842 477412.6905
 5162.515424 -2940.190673 477427.0363
 3256.209522 -3256.21195 477441.7928
 1112.244377 -3374.842409 477450.7772
 -1112.24846 -3374.84242 477450.7772
 -3256.2136 -3256.211941 477441.7927
 -5162.519497 -2940.190678 477427.0363
 -6612.686038 -2294.919843 477412.6905
 0 0 0
 4615.473652 -4615.476086 477419.3818
 2940.188226 -5162.517872 477427.0363
 1016.823297 -5326.677932 477433.2036
 -1016.827374 -5326.677925 477433.2036
 -2940.192299 -5162.517878 477427.0363
 -4615.477721 -4615.476083 477419.3817
 0 0 -0
 0 0 0
 0 0 0
 2294.917412 -6612.684402 477412.6905
 869.6003119 -6698.26386 477416.2213
 -869.6043818 -6698.263864 477416.2213
 -2294.921476 -6612.684403 477412.6905
 0 0 -0
 0 0 -0
 0 0 0
 0 0 0
 1913.48799 5663.292493 477426.5776
 742.0727307 5742.658783 477428.8874
 -742.076682 5742.658783 477428.8874
 -1913.491937 5663.292497 477426.5776
 0 0 -0
 0 0 -0
 0 0 0
 3938.248585 3938.250141 477431.5152
 2533.079688 4487.893834 477436.188
 885.8458237 4670.45406 477440.3349
 -885.8497812 4670.454067 477440.3349
 -2533.083641 4487.893828 477436.188
 -3938.252537 3938.250144 477431.5151
 0 0 -0
 5663.290936 1913.489546 477426.5776
 4487.892239 2533.08128 477436.188
 2868.42078 2868.422302 477446.7673
 986.8626053 3000.722543 477453.5507
 -986.8665684 3000.722526 477453.5507
 -2868.424741 2868.422316 477446.7673
 -4487.896193 2533.081271 477436.188
 -5663.294888 1913.489552 477426.5775
 5742.657207 742.0743066 477428.8874
 4670.452532 885.8473565 477440.335
 3000.720911 986.8642347 477453.5507
 1031.328466 1031.329962 477461.7723
 -1031.332434 1031.329989 477461.7723
 -3000.724873 986.864211 477453.5507
 -4670.45649 885.8473727 477440.3349
 -5742.661156 742.0743024 477428.8873
 5742.657232 -742.0751272 477428.8874
 4670.452458 -885.8481776 477440.335
 3000.721022 -986.8650592 477453.5507
 1031.328338 -1031.330783 477461.7723
 -1031.332305 -1031.330817 477461.7723
 -3000.724985 -986.8650301 477453.5507
 -4670.456415 -885.8481969 477440.3349
 -5742.661182 -742.0751221 477428.8873
 5663.290923 -1913.490366 477426.5776
 4487.892293 -2533.082103 477436.188
 2868.420694 -2868.423121 477446.7673
 986.8627083 -3000.723373 477453.5507
 -986.8666716 -3000.723341 477453.5507
 -2868.424654 -2868.423147 477446.7673
 -4487.896248 -2533.082087 477436.188
 -5663.294874 -1913.490373 477426.5775
 0 0 0
 3938.248568 -3938.250962 477431.5152
 2533.079736 -4487.894659 477436.188
 885.845762 -4670.454876 477440.3349
 -885.8497194 -4670.454898 477440.3349
 -2533.08369 -4487.894643 477436.188
 -3938.252519 -3938.250968 477431.5151
 0 0 -0
 0 0 0
 0 0 0
 1913.48798 -5663.293313 477426.5776
 742.0727504 -5742.659607 477428.8874
 -742.0767018 -5742.659601 477428.8874
 -1913.491926 -5663.293321 477426.5776
 0 0 -0
 0 0 -0
 0 0 0
 0 0 0
 1504.47816 4537.654663 477440.067
 588.076768 4604.150543 477441.4386
 -588.0804991 4604.150547 477441.4386
 -1504.481887 4537.654665 477440.0669
 0 0 -0
 0 0 -0
 0 0 0
 3145.837632 3145.839083 477443.2728
 2028.374274 3618.992956 477445.9759
 713.0641181 3786.95743 477448.4494
 -713.0678532 3786.957417 477448.4493
 -2028.378008 3618.992968 477445.9759
 -3145.841363 3145.839079 477443.2727
 0 0 -0
 4537.653217 1504.479604 477440.067
 3618.991556 2028.375676 477445.9759
 2332.373184 2332.37469 477452.6064
 806.8661449 2459.243314 477456.9849
 -806.8698864 2459.243342 477456.9848
 -2332.376921 2332.374665 477452.6064
 -3618.995291 2028.375693 477445.9759
 -4537.656949 1504.479603 477440.0669
 4604.149124 588.0781898 477441.4386
 3786.955938 713.0656072 477448.4494
 2459.241956 806.867505 477456.9849
 850.222983 850.2245295 477462.486
 -850.2267266 850.2244855 477462.486
 -2459.245698 806.8675432 477456.9848
 -3786.959672 713.0655813 477448.4493
 -4604.152854 588.0782002 477441.4385
 4604.149092 -588.079045 477441.4386
 3786.956033 -713.0664639 477448.4494
 2459.241814 -806.8683607 477456.9849
 850.2231493 -850.2253909 477462.486
 -850.2268933 -850.225339 477462.486
 -2459.245555 -806.8684051 477456.9848
 -3786.959769 -713.0664344 477448.4493
 -4604.152822 -588.0790565 477441.4385
 4537.653237 -1504.480459 477440.067
 3618.991487 -2028.376531 477445.9759
 2332.373296 -2332.375551 477452.6064
 806.8660117 -2459.244164 477456.9848
 -806.8697529 -2459.244211 477456.9848
 -2332.377034 -2332.375512 477452.6064
 -3618.995222 -2028.376555 477445.9759
 -4537.656969 -1504.480456 477440.0669
 0 0 0
 3145.837656 -3145.83994 477443.2727
 2028.374213 -3618.993809 477445.9759
 713.0641988 -3786.958295 477448.4493
 -713.067934 -3786.958264 477448.4493
 -2028.377946 -3618.993833 477445.9759
 -3145.841388 -3145.839932 477443.2727
 0 0 -0
 0 0 0
 0 0 0
 1504.478177 -4537.655522 477440.0669
 588.0767433 -4604.151396 477441.4386
 -588.0804744 -4604.151408 477441.4386
 -1504.481903 -4537.655519 477440.0669
 0 0 -0
 0 0 -0
 0 0 0
 0 0 0
 1144.344106 3495.46818 477449.8335
 448.3324273 3547.300545 477450.6121
 -448.3358476 3547.30054 477450.6121
 -1144.347523 3495.468188 477449.8335
 0 0 -0
 0 0 -0
 0 0 0
 2416.52121 2416.522452 477451.7694
 1557.700831 2792.467009 477453.293
 548.4796905 2929.925936 477454.6952
 -548.4831151 2929.925958 477454.6952
 -1557.704252 2792.466992 477453.293
 -2416.524632 2416.52246 477451.7694
 0 0 -0
 3495.466935 1144.34535 477449.8335
 2792.465712 1557.702127 477453.293
 1805.817171 1805.81836 477457.1702
 626.3804858 1912.754176 477459.7578
 -626.383913 1912.754134 477459.7578
 -1805.820599 1805.818395 477457.1702
 -2792.469134 1557.702105 477453.293
 -3495.470359 1144.34536 477449.8334
 3547.299272 448.3336998 477450.6121
 2929.924734 548.4808942 477454.6952
 1912.752829 626.3818316 477459.7578
 663.520979 663.5221312 477463.0779
 -663.5244101 663.5221893 477463.0779
 -1912.756256 626.3817811 477459.7578
 -2929.92816 548.4809289 477454.6952
 -3547.302693 448.3336894 477450.612
 3547.299303 -448.3346085 477450.6121
 2929.924644 -548.4818038 477454.6952
 1912.752965 -626.382743 477459.7578
 663.5208213 -663.5230402 477463.0779
 -663.5242521 -663.5231038 477463.0779
 -1912.756392 -626.3826882 477459.7578
 -2929.928069 -548.481841 477454.6952
 -3547.302724 -448.3345974 477450.612
 3495.46692 -1144.346258 477449.8335
 2792.465778 -1557.703037 477453.293
 1805.817066 -1805.819268 477457.1702
 626.3806118 -1912.755092 477459.7578
 -626.3840392 -1912.755038 477459.7578
 -1805.820493 -1805.819314 477457.1701
 -2792.469201 -1557.703009 477453.293
 -3495.470343 -1144.346269 477449.8334
 0 0 0
 2416.521189 -2416.523361 477451.7694
 1557.700891 -2792.467923 477453.293
 548.4796153 -2929.926841 477454.6952
 -548.4830398 -2929.926876 477454.6952
 -1557.704311 -2792.467897 477453.293
 -2416.524611 -2416.523372 477451.7694
 0 0 -0
 0 0 0
 0 0 0
 1144.344094 -3495.46909 477449.8335
 448.3324515 -3547.301458 477450.612
 -448.3358718 -3547.301448 477450.612
 -1144.34751 -3495.469101 477449.8334
 0 0 -0
 0 0 -0
 0 0 0
 0 0 0
 848.9108877 2615.417485 477456.082
 332.7838529 2653.950865 477456.5081
 -332.7868845 2653.950877 477456.5081
 -848.9139153 2615.417483 477456.082
 0 0 -0
 0 0 -0
 0 0 0
 1803.612698 1803.613736 477457.1868
 1161.404913 2088.839261 477458.0182
 409.0042024 2194.202575 477458.783
 -409.0072353 2194.202544 477458.783
 -1161.407947 2088.839287 477458.0182
 -1803.61573 1803.613728 477457.1868
 0 0 -0
 2615.41645 848.9119201 477456.082
 2088.838273 1161.405902 477458.0182
 1351.805987 1351.807078 477460.1727
 469.3095388 1435.088668 477461.6127
 -469.3125768 1435.088722 477461.6127
 -1351.809021 1351.807032 477460.1727
 -2088.84131 1161.405931 477458.0182
 -2615.419485 848.9119162 477456.082
 2653.949858 332.7848628 477456.5081
 2194.201498 409.0052768 477458.783
 1435.08772 469.3104883 477461.6127
 498.5133844 498.514507 477463.4795
 -498.5164227 498.5144383 477463.4795
 -1435.090759 469.3105475 477461.6127
 -2194.204532 409.0052376 477458.783
 -2653.952891 332.7848776 477456.5081
 2653.949834 -332.7858435 477456.5081
 2194.201569 -409.0062572 477458.783
 1435.087617 -469.311471 477461.6127
 498.513502 -498.5154895 477463.4795
 -498.5165404 -498.5154203 477463.4795
 -1435.090656 -469.3115305 477461.6127
 -2194.204603 -409.0062177 477458.783
 -2653.952867 -332.7858584 477456.5081
 2615.416466 -848.9128992 477456.082
 2088.838224 -1161.406884 477458.0182
 1351.806066 -1351.808059 477460.1727
 469.3094475 -1435.089651 477461.6127
 -469.3124854 -1435.089706 477461.6127
 -1351.8091 -1351.808013 477460.1727
 -2088.84126 -1161.406914 477458.0182
 -2615.4195 -848.9128952 477456.082
 0 0 0
 1803.612716 -1803.614718 477457.1868
 1161.404871 -2088.840244 477458.0182
 409.0042554 -2194.203558 477458.783
 -409.0072882 -2194.203525 477458.783
 -1161.407905 -2088.840271 477458.0182
 -1803.615747 -1803.614709 477457.1868
 0 0 -0
 0 0 0
 0 0 0
 848.9108994 -2615.418468 477456.082
 332.7838378 -2653.951848 477456.5081
 -332.7868693 -2653.95186 477456.5081
 -848.913927 -2615.418466 477456.082
 0 0 -0
 0 0 -0
 0 0 0
 0 0 0
 614.0504297 1902.95337 477459.813
 240.7336279 1930.603844 477460.0361
 -240.7362019 1930.603832 477460.0361
 -614.0530021 1902.953381 477459.813
 0 0 -0
 0 0 -0
 0 0 0
 1309.568176 1309.568917 477460.4082
 842.3375321 1518.438778 477460.8425
 296.5442498 1595.719708 477461.2414
 -296.5468271 1595.71975 477461.2414
 -842.3401052 1518.438748 477460.8425
 -1309.570752 1309.56893 477460.4081
 0 0 -0
 1902.952626 614.0511739 477459.813
 1518.437992 842.3383149 477460.8425
 982.2921312 982.2928319 477461.9791
 341.0286131 1043.848915 477462.7372
 -341.0311905 1043.84885 477462.7372
 -982.2947117 982.2928857 477461.9791
 -1518.440567 842.3382833 477460.8425
 -1902.955205 614.0511856 477459.813
 1930.603076 240.7343923 477460.0361
 1595.719 296.5449651 477461.2414
 1043.848095 341.0294301 477462.7372
 362.7152779 362.7159574 477463.7245
 -362.7178583 362.7160331 477463.7245
 -1043.850673 341.0293659 477462.7372
 -1595.721578 296.5450077 477461.2414
 -1930.605652 240.7343795 477460.0361
 1930.603094 -240.7354605 477460.0361
 1595.718953 -296.5460359 477461.2414
 1043.848159 -341.030498 477462.7372
 362.7152082 -362.7170306 477463.7245
 -362.717789 -362.7171012 477463.7245
 -1043.850736 -341.030438 477462.7372
 -1595.721532 -296.5460761 477461.2414
 -1930.60567 -240.7354484 477460.0361
 1902.952619 -614.0522424 477459.813
 1518.438025 -842.3393812 477460.8425
 982.2920854 -982.2939071 477461.9791
 341.0286637 -1043.84998 477462.7372
 -341.0312409 -1043.849927 477462.7372
 -982.2946665 -982.2939513 477461.9791
 -1518.4406 -842.3393547 477460.8425
 -1902.955198 -614.052253 477459.813
 0 0 0
 1309.568167 -1309.569989 477460.4082
 842.3375549 -1518.439846 477460.8425
 296.544225 -1595.720785 477461.2414
 -296.5468024 -1595.720815 477461.2414
 -842.3401277 -1518.439823 477460.8425
 -1309.570744 -1309.569999 477460.4081
 0 0 -0
 0 0 0
 0 0 0
 614.0504272 -1902.954443 477459.813
 240.7336351 -1930.604913 477460.0361
 -240.7362092 -1930.604905 477460.0361
 -614.0529996 -1902.954452 477459.813
 0 0 -0
 0 0 -0
 0 0 0
 0 0 0
 428.8902681 1334.41672 477461.9427
 168.1304295 1353.518607 477462.0519
 -168.1324914 1353.518625 477462.0519
 -428.8923271 1334.416713 477461.9427
 0 0 -0
 0 0 -0
 0 0 0
 916.8263783 916.8268323 477462.2395
 589.1657117 1063.741158 477462.4515
 207.3285346 1118.007653 477462.646
 -207.3305963 1118.007605 477462.646
 -589.1677761 1063.741195 477462.4515
 -916.8284399 916.8268207 477462.2395
 0 0 -0
 1334.416268 428.8907178 477461.9427
 1063.74074 589.1661333 477462.4515
 687.649026 687.6495147 477463.0096
 238.6621142 731.0221458 477463.3807
 -238.6641801 731.022219 477463.3807
 -687.6510873 687.6494558 477463.0096
 -1063.742807 589.1661688 477462.4515
 -1334.418333 428.8907118 477461.9426
 1353.518176 168.1308655 477462.0519
 1118.00717 207.3290088 477462.646
 731.0217551 238.6625112 477463.3807
 253.9722832 253.9727886 477463.8649
 -253.9743484 253.9727082 477463.8649
 -731.023821 238.6625783 477463.3807
 -1118.009233 207.3289661 477462.646
 -1353.52024 168.1308807 477462.0519
 1353.518167 -168.1320378 477462.0519
 1118.007198 -207.3301791 477462.646
 731.0217208 -238.6636877 477463.3807
 253.9723172 -253.9739576 477463.8649
 -253.9743818 -253.973887 477463.8649
 -731.0237882 -238.6637472 477463.3807
 -1118.00926 -207.3301408 477462.646
 -1353.520231 -168.1320517 477462.0519
 1334.416276 -428.8918876 477461.9427
 1063.740724 -589.1673096 477462.4515
 687.6490487 -687.6506805 477463.0096
 238.6620936 -731.0233306 477463.3807
 -238.6641599 -731.0233806 477463.3807
 -687.6511089 -687.6506393 477463.0096
 -1063.742791 -589.1673359 477462.4515
 -1334.41834 -428.8918836 477461.9426
 0 0 0
 916.8263843 -916.8280036 477462.2395
 589.165705 -1063.742338 477462.4515
 207.3285414 -1118.008818 477462.646
 -207.3306028 -1118.008791 477462.646
 -589.1677699 -1063.74236 477462.4515
 -916.8284456 -916.8279968 477462.2395
 0 0 -0
 0 0 0
 0 0 0
 428.8902713 -1334.417894 477461.9426
 168.1304299 -1353.519786 477462.0519
 -168.1324919 -1353.519795 477462.0519
 -428.8923301 -1334.417892 477461.9426
 0 0 -0
 0 0 -0
 0 0 0
 0 0 0
 281.0833386 876.8096705 477463.1122
 110.1770629 889.2019751 477463.1593
 -110.178567 889.2019577 477463.1593
 -281.0848423 876.809683 477463.1122
 0 0 -0
 0 0 -0
 0 0 0
 601.7148722 601.7149734 477463.2417
 386.3999325 698.3866215 477463.3329
 135.9251092 734.0080806 477463.4165
 -135.9266157 734.0081344 477463.4165
 -386.4014351 698.3865826 477463.3329
 -601.7163786 601.714988 477463.2417
 0 0 -0
 876.8095688 281.083443 477463.1122
 698.3864899 386.4000599 477463.3329
 451.1553864 451.1554601 477463.5737
 156.5270062 479.6661552 477463.7334
 -156.5285114 479.6660776 477463.7334
 -451.1568955 451.1555224 477463.5737
 -698.387994 386.4000249 477463.3329
 -876.8110765 281.0834539 477463.1122
 889.2018555 110.1771785 477463.1593
 734.0080058 135.9251956 477463.4165
 479.6659994 156.5271541 477463.7334
 166.5973896 166.5974489 477463.9419
 -166.5988972 166.5975324 477463.9419
 -479.6675056 156.5270856 477463.7334
 -734.009513 135.925239 477463.4165
 -889.2033613 110.1771653 477463.1593
 889.2018622 -110.1784649 477463.1593
 734.0079915 -135.9264854 477463.4165
 479.6660168 -156.528439 477463.7334
 166.5973741 -166.5987433 477463.9419
 -166.5988824 -166.5988155 477463.9419
 -479.6675213 -156.5283793 477463.7334
 -734.0095003 -135.9265238 477463.4165
 -889.2033673 -110.1784532 477463.1593
 876.8095683 -281.08473 477463.1122
 698.3864999 -386.4013434 477463.3329
 451.1553771 -451.1567574 477463.5737
 156.527014 -479.6674322 477463.7334
 -156.5285187 -479.6673814 477463.7334
 -451.1568876 -451.1567993 477463.5737
 -698.3880029 -386.4013189 477463.3329
 -876.8110764 -281.0847386 477463.1122
 0 0 0
 601.7148719 -601.7162644 477463.2417
 386.3999357 -698.3879041 477463.3329
 135.9251097 -734.0093824 477463.4165
 -135.9266165 -734.0094106 477463.4165
 -386.4014376 -698.3878834 477463.3329
 -601.7163787 -601.7162733 477463.2417
 0 0 -0
 0 0 0
 0 0 0
 281.0833412 -876.8109641 477463.1122
 110.1770626 -889.203261 477463.1593
 -110.1785666 -889.2032534 477463.1593
 -281.084845 -876.8109712 477463.1122
 0 0 -0
 0 0 -0
 0 0 0
 0 0 0
 158.821515 496.1975345 477463.7158
 62.24839445 503.1473147 477463.7308
 -62.24931038 503.1473337 477463.7308
 -158.8224291 496.1975253 477463.7158
 0 0 -0
 0 0 -0
 0 0 0
 340.2603052 340.2600624 477463.7575
 218.4031337 395.002108 477463.7867
 76.80863781 415.1331459 477463.8134
 -76.80955275 415.1330921 477463.8134
 -218.4040517 395.0021478 477463.7867
 -340.2612202 340.2600497 477463.7575
 0 0 -0
 496.1977787 158.8212707 477463.7158
 395.0023755 218.4028712 477463.7867
 255.0404922 255.0402718 477463.8638
 88.46106258 271.1606429 477463.9148
 -88.46198059 271.160721 477463.9148
 -255.041406 255.0402104 477463.8638
 -395.0032945 218.4029062 477463.7867
 -496.1986953 158.8212635 477463.7158
 503.1475742 62.24814114 477463.7308
 415.1333662 76.80840684 477463.8134
 271.1609328 88.4607825 477463.9148
 94.15576253 94.15555825 477463.9814
 -94.15667929 94.15547352 477463.9814
 -271.1618507 88.4608511 477463.9148
 -415.1342822 76.80836498 477463.8134
 -503.148491 62.24815496 477463.7308
 503.1475724 -62.24955396 477463.7308
 415.1333741 -76.80981819 477463.8134
 271.1609237 -88.46219943 477463.9148
 94.15577153 -94.15696854 477463.9814
 -94.15668768 -94.15689278 477463.9814
 -271.161843 -88.46226107 477463.9148
 -415.1342889 -76.80978023 477463.8134
 -503.1484897 -62.2495667 477463.7308
 496.1977827 -158.8226812 477463.7158
 395.002372 -218.4042877 477463.7867
 255.0404984 -255.0416794 477463.8638
 88.46105787 -271.1620676 477463.9148
 -88.46197636 -271.1621245 477463.9148
 -255.0414111 -255.0416341 477463.8638
 -395.003292 -218.4043144 477463.7867
 -496.198699 -158.8226758 477463.7158
 0 0 0
 340.260308 -340.2614748 477463.7575
 218.4031333 -395.0035292 477463.7867
 76.80863914 -415.134552 477463.8134
 -76.8095538 -415.1345185 477463.8134
 -218.4040519 -395.0035546 477463.7867
 -340.2612228 -340.2614665 477463.7575
 0 0 -0
 0 0 0
 0 0 0
 158.8215177 -496.1989498 477463.7158
 62.24839575 -503.1487342 477463.7308
 -62.24931174 -503.1487453 477463.7308
 -158.8224317 -496.1989449 477463.7158
 0 0 -0
 0 0 -0
 0 0 0
 0 0 0
 51.33265595 160.491969 477463.9703
 20.11828869 162.7294111 477463.9718
 -20.11859565 162.7293939 477463.9718
 -51.33296359 160.4919792 477463.9703
 0 0 -0
 0 0 -0
 0 0 0
 110.0147404 110.0141173 477463.9747
 70.59932478 127.7241958 477463.9777
 24.8253888 134.2298677 477463.9805
 -24.82569744 134.2299183 477463.9805
 -70.59962988 127.7241595 477463.9777
 -110.015049 110.0141296 477463.9747
 0 0 -0
 160.4925928 51.33203649 477463.9703
 127.7248005 70.59871713 477463.9777
 82.44612446 82.44548227 477463.9858
 28.59225954 87.65582343 477463.9911
 -28.59256592 87.65574974 477463.9911
 -82.44643514 82.44553939 477463.9858
 -127.7251058 70.59868604 477463.9777
 -160.4929014 51.33204442 477463.9703
 162.7300223 20.11767436 477463.9718
 134.2305127 24.82475659 477463.9805
 87.65640658 28.59166674 477463.9911
 30.43288676 30.43222601 477463.9981
 -30.43319512 30.43230881 477463.9981
 -87.6567132 28.59160122 477463.9911
 -134.2308215 24.82479548 477463.9805
 -162.7303296 20.11766251 477463.9718
 162.7300251 -20.11921874 477463.9718
 134.2305083 -24.82630301 477463.9805
 87.65641424 -28.59321183 477463.9911
 30.43287835 -30.43377473 477463.9981
 -30.433187 -30.43385412 477463.9981
 -87.65672022 -28.59314896 477463.9911
 -134.2308176 -24.82634044 477463.9805
 -162.7303322 -20.11920732 477463.9718
 160.4925947 -51.33358042 477463.9703
 127.7248052 -70.60026075 477463.9777
 82.44611955 -82.44703202 477463.9858
 28.59226623 -87.65736699 477463.9911
 -28.59257238 -87.65730138 477463.9911
 -82.44643072 -82.44708302 477463.9858
 -127.7251101 -70.60023279 477463.9777
 -160.4929033 -51.33358768 477463.9703
 0 0 0
 110.0147412 -110.0156648 477463.9747
 70.59932894 -127.7257415 477463.9777
 24.82538576 -134.2314193 477463.9805
 -24.82569453 -134.2314621 477463.9805
 -70.59963376 -127.7257107 477463.9777
 -110.0150499 -110.0156753 477463.9747
 0 0 -0
 0 0 0
 0 0 0
 51.33265808 -160.4935193 477463.9703
 20.11829081 -162.7309582 477463.9718
 -20.11859771 -162.730944 477463.9718
 -51.33296577 -160.4935279 477463.9703
 0 0 -0
 0 0 -0
 0 0 0
 0 0 0
 -51.33265911 -160.4935877 477463.9703
 -20.1182892 -162.7310269 477463.9718
 20.11859613 -162.731012 477463.9718
 51.3329668 -160.4935965 477463.9703
 0 0 -0
 0 0 -0
 0 0 0
 -110.0147425 -110.0157331 477463.9747
 -70.59932532 -127.7258101 477463.9777
 -24.8253907 -134.231487 477463.9805
 24.82569945 -134.2315313 477463.9805
 70.59963021 -127.725779 477463.9777
 110.0150512 -110.0157433 477463.9747
 0 0 -0
 -160.4925957 -51.3336488 477463.9703
 -127.7248017 -70.60032883 477463.9777
 -82.44612567 -82.44710066 477463.9858
 -28.59225857 -87.6574354 477463.9911
 28.59256478 -87.65737012 477463.9911
 82.44643677 -82.44715004 477463.9858
 127.7251067 -70.60030305 477463.9777
 160.4929043 -51.33365528 477463.9703
 -162.7300236 -20.11928646 477463.9718
 -134.230513 -24.82637282 477463.9805
 -87.65640663 -28.59327879 477463.9911
 -30.43288762 -30.43384429 477463.9981
 30.43319622 -30.43392122 477463.9981
 87.65671273 -28.59321962 477463.9911
 134.2308224 -24.82640634 477463.9805
 162.7303307 -20.11927669 477463.9718
 -162.7300239 20.11760498 477463.9718
 -134.2305078 24.8246907 477463.9805
 -87.65641433 28.59159606 477463.9911
 -30.43287733 30.43215893 477463.9981
 30.43318577 30.43223923 477463.9981
 87.65672086 28.59153427 477463.9911
 134.2308167 24.82472566 477463.9805
 162.7303312 20.11759479 477463.9718
 -160.4925918 51.33196889 477463.9703
 -127.7248042 70.59864684 477463.9777
 -82.44611805 82.4454153 477463.9858
 -28.59226744 87.65575463 477463.9911
 28.59257378 87.65568138 477463.9911
 82.44642883 82.44547071 477463.9858
 127.7251094 70.59861798 477463.9777
 160.4929004 51.33197603 477463.9703
 0 0 0
 -110.014739 110.0140494 477463.9747
 -70.59932855 127.7241274 477463.9777
 -24.82538372 134.2297986 477463.9805
 24.82569241 134.2298505 477463.9805
 70.5996336 127.7240909 477463.9777
 110.0150476 110.0140612 477463.9747
 0 0 -0
 0 0 0
 0 0 0
 -51.33265488 160.4919004 477463.9703
 -20.1182903 162.7293431 477463.9718
 20.11859726 162.7293251 477463.9718
 51.33296255 160.4919109 477463.9703
 0 0 -0
 0 0 -0
 0 0 0
 0 0 0
 -158.8215171 -496.199154 477463.7158
 -62.24839747 -503.148937 477463.7308
 62.24931348 -503.1489502 477463.7308
 158.8224311 -496.1991484 477463.7158
 0 0 -0
 0 0 -0
 0 0 0
 -340.2603069 -340.2616782 477463.7575
 -218.4031369 -395.0037327 477463.7867
 -76.80863431 -415.1347574 477463.8134
 76.80954899 -415.1347206 477463.8134
 218.4040555 -395.0037586 477463.7867
 340.2612217 -340.2616709 477463.7575
 0 0 -0
 -496.1977821 -158.8228837 477463.7158
 -395.0023755 -218.4044936 477463.7867
 -255.0404925 -255.0418813 477463.8638
 -88.46106541 -271.1622721 477463.9148
 88.4619839 -271.1623275 477463.9148
 255.0414052 -255.0418409 477463.8638
 395.0032955 -218.4045142 477463.7867
 496.1986985 -158.8228805 477463.7158
 -503.147574 -62.24975961 477463.7308
 -415.1333695 -76.81001687 477463.8134
 -271.1609313 -88.46240817 477463.9148
 -94.15576227 -94.15716892 477463.9814
 94.15667844 -94.15710045 477463.9814
 271.1618506 -88.46245926 477463.9148
 415.1342842 -76.80998985 477463.8134
 503.1484913 -62.24976777 477463.7308
 -503.1475725 62.24794008 477463.7308
 -415.1333711 76.80819719 477463.8134
 -271.1609249 88.46058435 477463.9148
 -94.15577212 94.15535057 477463.9814
 94.15668888 94.15527314 477463.9814
 271.1618428 88.46064239 477463.9148
 415.1342872 76.80816628 477463.8134
 503.1484892 62.24794932 477463.7308
 -496.1977794 158.821066 477463.7158
 -395.0023715 218.4026715 477463.7867
 -255.0404987 255.040065 477463.8638
 -88.4610544 271.1604399 477463.9148
 88.46197244 271.1605165 477463.9148
 255.0414125 255.0400085 477463.8638
 395.0032905 218.4027003 477463.7867
 496.198696 158.821061 477463.7158
 0 0 0
 -340.2603064 340.259858 477463.7575
 -218.4031296 395.0019041 477463.7867
 -76.80864296 415.1329437 477463.8134
 76.80955791 415.1328866 477463.8134
 218.4040477 395.0019443 477463.7867
 340.2612215 340.2598464 477463.7575
 0 0 -0
 0 0 0
 0 0 0
 -158.8215157 496.197331 477463.7158
 -62.24839265 503.1471098 477463.7308
 62.2493086 503.1471309 477463.7308
 158.8224299 496.197321 477463.7158
 0 0 -0
 0 0 -0
 0 0 0
 0 0 0
 -281.0833425 -876.8112987 477463.1122
 -110.1770612 -889.2035971 477463.1593
 110.1785653 -889.2035868 477463.1593
 281.0848464 -876.8113067 477463.1122
 0 0 -0
 0 0 -0
 0 0 0
 -601.7148733 -601.7165997 477463.2417
 -386.3999324 -698.3882392 477463.3329
 -135.9251144 -734.0097154 477463.4165
 135.9266213 -734.0097476 477463.4165
 386.4014343 -698.3882183 477463.3329
 601.7163801 -601.716607 477463.2417
 0 0 -0
 -876.8095696 -281.0850655 477463.1122
 -698.3864967 -386.401674 477463.3329
 -451.155383 -451.1570958 477463.5737
 -156.5270066 -479.6677657 477463.7334
 156.5285113 -479.6677182 477463.7334
 451.1568936 -451.1571298 477463.5737
 698.3879996 -386.4016589 477463.3329
 876.8110777 -281.0850709 477463.1122
 -889.2018608 -110.1787962 477463.1593
 -734.0079962 -135.9268278 477463.4165
 -479.6660094 -156.5287662 477463.7334
 -166.5973833 -166.5990842 477463.9419
 166.5988917 -166.5991446 477463.9419
 479.6675137 -156.5287227 477463.7334
 734.0095051 -135.92685 477463.4165
 889.203366 -110.1787912 477463.1593
 -889.2018569 110.1768404 477463.1593
 -734.0080008 135.9248695 477463.4165
 -479.6660072 156.5268107 477463.7334
 -166.59738 166.5971198 477463.9419
 166.5988875 166.5971915 477463.9419
 479.6675135 156.5267583 477463.7334
 734.0095079 135.9248967 477463.4165
 889.2033628 110.176834 477463.1593
 -876.8095673 281.0831107 477463.1122
 -698.3864936 386.3997199 477463.3329
 -451.1553797 451.1551297 477463.5737
 -156.5270144 479.6658184 477463.7334
 156.5285197 479.6657441 477463.7334
 451.1568888 451.1551841 477463.5737
 698.3879978 386.3996942 477463.3329
 876.811075 281.0831183 477463.1122
 0 0 0
 -601.7148705 601.7146397 477463.2417
 -386.3999364 698.3862866 477463.3329
 -135.9251038 734.0077436 477463.4165
 135.9266103 734.0078015 477463.4165
 386.401439 698.3862475 477463.3329
 601.716377 601.7146526 477463.2417
 0 0 -0
 0 0 0
 0 0 0
 -281.0833372 876.8093349 477463.1122
 -110.1770645 889.2016417 477463.1593
 110.1785686 889.2016215 477463.1593
 281.0848408 876.8093484 477463.1122
 0 0 -0
 0 0 -0
 0 0 0
 0 0 0
 -428.8902711 -1334.418353 477461.9426
 -168.1304315 -1353.520243 477462.0519
 168.1324935 -1353.520255 477462.0519
 428.8923299 -1334.41835 477461.9426
 0 0 -0
 0 0 -0
 0 0 0
 -916.8263834 -916.8284612 477462.2395
 -589.1657083 -1063.742797 477462.4515
 -207.3285371 -1118.009278 477462.646
 207.3305986 -1118.009248 477462.646
 589.1677734 -1063.742819 477462.4515
 916.8284447 -916.8284566 477462.2395
 0 0 -0
 -1334.416276 -428.8923437 477461.9427
 -1063.740727 -589.1677733 477462.4515
 -687.6490432 -687.6511347 477463.0096
 -238.6621006 -731.0237923 477463.3807
 238.664167 -731.0238369 477463.3807
 687.6511032 -687.651104 477463.0096
 1063.742795 -589.1677878 477462.4515
 1334.41834 -428.8923437 477461.9426
 -1353.518169 -168.1325001 477462.0519
 -1118.007193 -207.330628 477462.646
 -731.021728 -238.6641568 477463.3807
 -253.9723084 -253.974409 477463.8649
 253.9743729 -253.9743542 477463.8649
 731.0237956 -238.6641955 477463.3807
 1118.009255 -207.33061 477462.646
 1353.520233 -168.1325057 477462.0519
 -1353.518175 168.1304115 477462.0519
 -1118.007174 207.3285396 477462.646
 -731.0217476 238.6620628 477463.3807
 -253.9722924 253.9723214 477463.8649
 253.9743577 253.9722567 477463.8649
 731.0238133 238.6621093 477463.3807
 1118.009238 207.3285172 477462.646
 1353.520238 168.1304184 477462.0519
 -1334.416269 428.8902577 477461.9427
 -1063.740737 589.1656813 477462.4515
 -687.6490323 687.6490501 477463.0096
 -238.6621062 731.0216894 477463.3807
 238.664172 731.0217574 477463.3807
 687.6510937 687.6490016 477463.0096
 1063.742803 589.1657051 477462.4515
 1334.418333 428.8902557 477461.9426
 0 0 0
 -916.8263793 916.8263725 477462.2395
 -589.1657077 1063.740699 477462.4515
 -207.3285398 1118.007196 477462.646
 207.3306016 1118.007144 477462.646
 589.167772 1063.740736 477462.4515
 916.828441 916.826363 477462.2395
 0 0 -0
 0 0 0
 0 0 0
 -428.8902685 1334.416262 477461.9427
 -168.1304275 1353.518147 477462.0519
 168.1324894 1353.518167 477462.0519
 428.8923275 1334.416254 477461.9427
 0 0 -0
 0 0 -0
 0 0 0
 0 0 0
 -614.0504286 -1902.955016 477459.813
 -240.7336343 -1930.605488 477460.0361
 240.7362083 -1930.605477 477460.0361
 614.053001 -1902.955025 477459.813
 0 0 -0
 0 0 -0
 0 0 0
 -1309.568169 -1309.570562 477460.4082
 -842.3375523 -1518.440418 477460.8425
 -296.5442288 -1595.721356 477461.2414
 296.5468062 -1595.72139 477461.2414