# OOMMF OVF 2.0
#
# Segment count: 1
#
# Begin: Segment
# Begin: Header
#
# Title: Oxs_MinDriver::Magnetization
# Desc: Oxs vector field output
# Desc:  MIF source file: F:/Bogdan/UNIC/2022/Master_degree/Samples/Cylinder11_7.mif
# Desc:  Iteration: 1203, State id: 6059
# Desc:  Stage: 1, Stage iteration: 469
# Desc:  Stage simulation time: 0 s
# Desc:  Total simulation time: -2 s
# meshunit: m
# meshtype: rectangular
# xbase: -1.5000000000000002e-08
# ybase: -1.5000000000000002e-08
# zbase: -8.9999999999999995e-09
# xnodes: 16
# ynodes: 16
# znodes: 10
# xstepsize: 2.0000000000000001e-09
# ystepsize: 2.0000000000000001e-09
# zstepsize: 2.0000000000000001e-09
# xmin: -1.6000000000000001e-08
# ymin: -1.6000000000000001e-08
# zmin: -1e-08
# xmax: 1.6000000000000001e-08
# ymax: 1.6000000000000001e-08
# zmax: 1e-08
# valuedim: 3
# valuelabels: Magnetization_x Magnetization_y Magnetization_z
# valueunits: A/m A/m A/m
#
# End: Header
#
# Begin: Data Text
 0 0 0
 0 0 0
 0 0 0
 0 0 0
 0 0 0
 14250.72108 49414.21304 474686.2372
 9444.570135 49661.42529 474780.3853
 3255.627194 49828.51178 474845.6503
 -3255.633254 49828.51144 474845.6503
 -9444.576265 49661.42442 474780.3852
 -14250.7273 49414.2118 474686.2372
 0 0 -0
 0 0 -0
 0 0 -0
 0 0 -0
 0 0 -0
 0 0 0
 0 0 0
 0 0 0
 28641.32759 42475.37022 474707.6875
 23907.51871 43276.03886 474897.3429
 16831.38769 45111.37145 475030.041
 10246.51402 45687.18091 475162.6687
 3447.956524 45895.70413 475240.5362
 -3447.962499 45895.70392 475240.5362
 -10246.52014 45687.17996 475162.6687
 -16831.39403 45111.37018 475030.0409
 -23907.52541 43276.03727 474897.3427
 -28641.33448 42475.36861 474707.6872
 0 0 -0
 0 0 -0
 0 0 -0
 0 0 0
 0 0 0
 35894.42083 35894.44258 474757.8865
 30750.76559 37821.02925 474969.2953
 24722.84735 38765.96263 475245.0444
 17822.50844 39603.83159 475484.7695
 10769.06534 40017.44662 475662.1727
 3603.781627 40183.57303 475756.413
 -3603.78735 40183.57259 475756.413
 -10769.07121 40017.44596 475662.1726
 -17822.51463 39603.83035 475484.7694
 -24722.85384 38765.96135 475245.0442
 -30750.77236 37821.02793 474969.2949
 -35894.4277 35894.44158 474757.8861
 0 0 -0
 0 0 -0
 0 0 0
 42475.34919 28641.35122 474707.688
 37821.00686 30750.78908 474969.2955
 31972.30549 31972.32869 475318.2231
 25407.06939 32678.56654 475666.3362
 18346.37082 33163.42104 475957.424
 11073.8437 33433.00589 476163.2865
 3701.500898 33548.45446 476269.5365
 -3701.506128 33548.45442 476269.5365
 -11073.8491 33433.00514 476163.2864
 -18346.3765 33163.42026 475957.4239
 -25407.07543 32678.56556 475666.336
 -31972.3118 31972.32794 475318.2227
 -37821.0133 30750.78861 474969.2951
 -42475.35551 28641.35122 474707.6874
 0 0 -0
 0 0 0
 43276.0183 23907.5433 474897.3435
 38765.94087 24722.87196 475245.0449
 32678.54337 25407.09349 475666.3365
 25864.2942 25864.31757 476060.8644
 18655.56777 26162.23917 476381.547
 11252.02075 26332.39733 476604.5197
 3759.297202 26407.33049 476718.357
 -3759.301692 26407.33023 476718.357
 -11252.02541 26332.39706 476604.5196
 -18655.57265 26162.2386 476381.5468
 -25864.29945 25864.31717 476060.8642
 -32678.54882 25407.09325 475666.3362
 -38765.94648 24722.87213 475245.0445
 -43276.02388 23907.54378 474897.343
 0 0 -0
 49414.19628 14250.74463 474686.2382
 45111.35245 16831.41144 475030.042
 39603.81043 17822.53294 475484.7703
 33163.39799 18346.39529 475957.4247
 26162.21546 18655.59184 476381.5474
 18842.10919 18842.13318 476719.8551
 11355.75523 18946.38178 476952.7783
 3792.592788 18992.27323 477071.0441
 -3792.596328 18992.2732 477071.044
 -11355.75882 18946.3816 476952.7782
 -18842.11309 18842.13307 476719.8549
 -26162.21948 18655.59188 476381.5471
 -33163.40233 18346.39571 475957.4244
 -39603.81478 17822.5337 475484.7699
 -45111.35668 16831.41277 475030.0415
 -49414.19996 14250.74648 474686.2378
 49661.40975 9444.5931 474780.3864
 45687.164 10246.53747 475162.6698
 40017.42655 10769.08987 475662.1738
 33432.98303 11073.86985 476163.2875
 26332.37343 11252.04656 476604.5204
 18946.35694 11355.78088 476952.7787
 11412.39348 11412.41902 477191.1412
 3810.560537 11437.11911 477311.7883
 -3810.562882 11437.11919 477311.7883
 -11412.39596 11412.41903 477191.1412
 -18946.35942 11355.7811 476952.7786
 -26332.37621 11252.04702 476604.5202
 -33432.98578 11073.87066 476163.2873
 -40017.42948 10769.0912 475662.1735
 -45687.1668 10246.53914 475162.6695
 -49661.41242 9444.595201 474780.3861
 49828.49734 3255.649506 474845.6517
 45895.68871 3447.979427 475240.5375
 40183.5542 3603.807205 475756.4144
 33548.43266 3701.527447 476269.5378
 26407.30622 3759.32413 476718.3581
 18992.24835 3792.620699 477071.0448
 11437.09337 3810.5876 477311.7887
 3818.344583 3818.371602 477433.463
 -3818.345666 3818.371546 477433.463
 -11437.09444 3810.587831 477311.7887
 -18992.24951 3792.621032 477071.0448
 -26407.30732 3759.324772 476718.358
 -33548.43393 3701.528607 476269.5377
 -40183.55536 3603.808663 475756.4143
 -45895.68995 3447.981425 475240.5374
 -49828.4985 3255.651658 474845.6515
 49828.49791 -3255.610486 474845.6519
 45895.68926 -3447.938477 475240.5378
 40183.55466 -3603.761486 475756.4147
 33548.4335 -3701.47902 476269.5381
 26407.30704 -3759.274169 476718.3585
 18992.24896 -3792.567365 477071.0452
 11437.09361 -3810.534217 477311.7891
 3818.34493 -3818.317494 477433.4634
 -3818.344685 -3818.317324 477433.4634
 -11437.09333 -3810.534113 477311.7891
 -18992.24858 -3792.56693 477071.0453
 -26407.30665 -3759.273415 476718.3585
 -33548.43298 -3701.478044 476269.5382
 -40183.5542 -3603.759869 475756.4148
 -45895.68875 -3447.93666 475240.5378
 -49828.49747 -3255.608297 474845.6519
 49661.41253 -9444.553429 474780.3869
 45687.16651 -10246.49571 475162.6705
 40017.42909 -10769.04505 475662.1746
 33432.98535 -11073.82213 476163.2884
 26332.37575 -11251.9977 476604.5214
 18946.35881 -11355.72991 476952.7798
 11412.39506 -11412.36659 477191.1424
 3810.562245 -11437.06615 477311.7895
 -3810.560725 -11437.06622 477311.7895
 -11412.39345 -11412.36642 477191.1425
 -18946.35705 -11355.72968 476952.7799
 -26332.3738 -11251.99722 476604.5215
 -33432.9833 -11073.82115 476163.2886
 -40017.42693 -10769.04391 475662.1748
 -45687.16445 -10246.49396 475162.6707
 -49661.4106 -9444.551522 474780.3872
 49414.20072 -14250.70542 474686.239
 45111.35688 -16831.37032 475030.043
 39603.81445 -17822.48883 475484.7716
 33163.4016 -18346.34963 475957.4262
 26162.21854 -18655.5446 476381.549
 18842.11183 -18842.0844 476719.8569
 11355.75789 -18946.33084 476952.7803
 3792.595739 -18992.22156 477071.0461
 -3792.593098 -18992.22157 477071.0461
 -11355.75511 -18946.3309 476952.7803
 -18842.10883 -18842.08442 476719.857
 -26162.21529 -18655.54437 476381.5492
 -33163.39809 -18346.34932 475957.4264
 -39603.81093 -17822.4879 475484.772
 -45111.35343 -16831.3692 475030.0434
 -49414.19782 -14250.70369 474686.2393
 0 0 0
 43276.02298 -23907.50049 474897.3453
 38765.9451 -24722.82765 475245.0469
 32678.54697 -25407.04781 475666.3387
 25864.29785 -25864.27138 476060.8668
 18655.57142 -26162.19103 476381.5495
 11252.0245 -26332.34814 476604.5223
 3759.301027 -26407.27944 476718.3598
 -3759.297483 -26407.27956 476718.3598
 -11252.02078 -26332.34844 476604.5224
 -18655.56744 -26162.19134 476381.5496
 -25864.2935 -25864.27174 476060.867
 -32678.54242 -25407.04779 475666.339
 -38765.94034 -24722.82754 475245.0473
 -43276.0183 -23907.49995 474897.3457
 0 0 -0
 0 0 0
 42475.35332 -28641.30913 474707.6901
 37821.01086 -30750.74563 474969.298
 31972.30905 -31972.28388 475318.2258
 25407.073 -32678.5199 475666.3392
 18346.3752 -33163.37373 475957.4271
 11073.84827 -33432.95728 476163.2898
 3701.505349 -33548.40564 476269.5399
 -3701.501151 -33548.4058 476269.5399
 -11073.84392 -33432.9578 476163.2899
 -18346.37048 -33163.37445 475957.4273
 -25407.068 -32678.52059 475666.3394
 -31972.30367 -31972.2846 475318.2262
 -37821.00541 -30750.74593 474969.2984
 -42475.34791 -28641.30909 474707.6906
 0 0 -0
 0 0 0
 0 0 0
 35894.42517 -35894.40141 474757.8893
 30750.76916 -37820.98492 474969.2986
 24722.85118 -38765.91761 475245.0479
 17822.51234 -39603.78626 475484.7731
 10769.06937 -40017.40095 475662.1764
 3603.786118 -40183.52624 475756.4169
 -3603.781559 -40183.5265 475756.4169
 -10769.06459 -40017.40166 475662.1765
 -17822.50732 -39603.78725 475484.7732
 -24722.84571 -38765.91884 475245.0481
 -30750.76348 -37820.98596 474969.2989
 -35894.4193 -35894.4023 474757.8897
 0 0 -0
 0 0 -0
 0 0 0
 0 0 0
 0 0 0
 28641.33019 -42475.32591 474707.6913
 23907.52225 -43275.99475 474897.3468
 16831.39155 -45111.32695 475030.0451
 10246.5178 -45687.137 475162.6729
 3447.961151 -45895.66049 475240.5404
 -3447.956419 -45895.66079 475240.5404
 -10246.51294 -45687.13783 475162.6729
 -16831.38638 -45111.32817 475030.0452
 -23907.51671 -43275.99612 474897.3469
 -28641.32439 -42475.32738 474707.6915
 0 0 -0
 0 0 -0
 0 0 -0
 0 0 0
 0 0 0
 0 0 0
 0 0 0
 0 0 0
 14250.72463 -49414.16942 474686.2416
 9444.573745 -49661.38277 474780.3896
 3255.63176 -49828.46882 474845.6548
 -3255.627001 -49828.46914 474845.6548
 -9444.568897 -49661.38362 474780.3896
 -14250.71968 -49414.17063 474686.2417
 0 0 -0
 0 0 -0
 0 0 -0
 0 0 -0
 0 0 -0
 0 0 0
 0 0 0
 0 0 0
 0 0 0
 0 0 0
 11993.79129 42206.27633 475443.6355
 8111.561267 42429.53736 475505.8446
 2820.992042 42586.36721 475552.6413
 -2820.997983 42586.36694 475552.6413
 -8111.5673 42429.53648 475505.8446
 -11993.7974 42206.27512 475443.6354
 0 0 -0
 0 0 -0
 0 0 -0
 0 0 -0
 0 0 -0
 0 0 0
 0 0 0
 0 0 0
 24477.02214 36218.65204 475458.6795
 20589.15042 37076.62286 475576.789
 14482.33706 38949.49558 475652.2574
 8888.309259 39612.12728 475734.9563
 3005.554291 39847.00595 475788.8755
 -3005.560171 39847.00546 475788.8755
 -8888.31524 39612.12654 475734.9562
 -14482.34331 38949.49427 475652.2574
 -20589.15698 37076.62139 475576.7888
 -24477.02892 36218.65045 475458.6793
 0 0 -0
 0 0 -0
 0 0 -0
 0 0 0
 0 0 0
 30664.85343 30664.87609 475490.4872
 26517.26308 32595.41847 475611.443
 21505.09496 33666.78386 475789.8169
 15566.81015 34596.61325 475954.4307
 9441.539725 35079.09857 476080.02
 3166.572754 35273.27726 476148.7583
 -3166.578372 35273.27729 476148.7583
 -9441.54553 35079.09758 476080.02
 -15566.81616 34596.61225 475954.4305
 -21505.10141 33666.7825 475789.8167
 -26517.26972 32595.41728 475611.4428
 -30664.8602 30664.87511 475490.4868
 0 0 -0
 0 0 -0
 0 0 0
 36218.63001 24477.04608 475458.68
 32595.39618 26517.28663 475611.4433
 27843.80788 27843.83158 475837.4877
 22283.55951 28648.92764 476082.5067
 16156.32823 29198.97188 476296.4039
 9776.190425 29509.84034 476450.9069
 3271.823724 29643.90043 476531.6418
 -3271.828883 29643.8999 476531.6418
 -9776.195716 29509.84 476450.9068
 -16156.33386 29198.97094 476296.4038
 -22283.56541 28648.92681 476082.5065
 -27843.81407 27843.8308 475837.4874
 -32595.40251 26517.28619 475611.4428
 -36218.63625 24477.0461 475458.6795
 0 0 -0
 0 0 0
 37076.6013 20589.17483 475576.7896
 33666.76139 21505.11949 475789.8174
 28648.90425 22283.58325 476082.507
 22806.28978 22806.31309 476373.4003
 16505.37153 23144.78934 476616.9979
 9974.072582 23338.86989 476788.9327
 3335.251892 23424.78913 476877.3707
 -3335.256335 23424.78924 476877.3706
 -9974.077114 23338.86931 476788.9326
 -16505.37641 23144.78898 476616.9978
 -22806.29483 22806.31263 476373.4001
 -28648.90971 22283.58313 476082.5067
 -33666.76689 21505.11963 475789.817
 -37076.60678 20589.17535 475576.7892
 0 0 -0
 42206.25836 11993.81493 475443.6365
 38949.47569 14482.36079 475652.2583
 34596.59177 15566.83426 475954.4314
 29198.94866 16156.35253 476296.4045
 23144.76552 16505.39565 476616.9983
 16715.54271 16715.56745 476878.4454
 10089.74724 16833.30664 477060.4868
 3372.117098 16885.37522 477153.4179
 -3372.120522 16885.37509 477153.4179
 -10089.75094 16833.30656 477060.4867
 -16715.54633 16715.56735 476878.4453
 -23144.7697 16505.39572 476616.9981
 -29198.95273 16156.35284 476296.4043
 -34596.59612 15566.83514 475954.4311
 -38949.47985 14482.36194 475652.258
 -42206.262 11993.81681 475443.6361
 42429.5207 8111.58386 475505.8457
 39612.10945 8888.332482 475734.9573
 35079.07796 9441.563892 476080.0211
 29509.81729 9776.216256 476450.9078
 23338.84562 9974.098213 476788.9333
 16833.28112 10089.77316 477060.4872
 10153.20097 10153.22719 477248.0443
 3392.150734 10181.04994 477343.3888
 -3392.15309 10181.0498 477343.3888
 -10153.20323 10153.22734 477248.0442
 -16833.28379 10089.77322 477060.4871
 -23338.84807 9974.098701 476788.9332
 -29509.82026 9776.217156 476450.9076
 -35079.08066 9441.565067 476080.0208
 -39612.11227 8888.334303 475734.9571
 -42429.52331 8111.585826 475505.8454
 42586.35196 2821.014107 475552.6425
 39846.98923 3005.577641 475788.8768
 35273.25801 3166.597488 476148.7596
 29643.87769 3271.849992 476531.643
 23424.76404 3335.278697 476877.3717
 16885.34953 3372.14498 477153.4186
 10181.02319 3392.178543 477343.3892
 3400.885536 3400.912771 477439.7753
 -3400.886557 3400.913009 477439.7753
 -10181.02431 3392.178568 477343.3891
 -16885.3505 3372.145456 477153.4186
 -23424.76531 3335.279426 476877.3716
 -29643.87868 3271.850909 476531.643
 -35273.25932 3166.599141 476148.7594
 -39846.99034 3005.579407 475788.8767
 -42586.35312 2821.016359 475552.6424
 42586.35249 -2820.974906 475552.6427
 39846.98966 -3005.536357 475788.877
 35273.25875 -3166.552613 476148.7598
 29643.87826 -3271.80225 476531.6433
 23424.76494 -3335.228659 476877.372
 16885.35016 -3372.091836 477153.419
 10181.02343 -3392.124932 477343.3895
 3400.885861 -3400.857986 477439.7757
 -3400.885585 -3400.858143 477439.7757
 -10181.0231 -3392.124602 477343.3896
 -16885.34982 -3372.09154 477153.419
 -23424.76443 -3335.228034 476877.372
 -29643.87787 -3271.800955 476531.6434
 -35273.25814 -3166.551305 476148.7599
 -39846.98919 -3005.534293 475788.877
 -42586.352 -2820.972865 475552.6428
 42429.52327 -8111.544018 475505.8461
 39612.11196 -8888.290679 475734.9579
 35079.08011 -9441.519665 476080.0218
 29509.81957 -9776.16919 476450.9087
 23338.84757 -9974.049695 476788.9342
 16833.28302 -10089.72243 477060.4882
 10153.20266 -10153.17515 477248.0454
 3392.152545 -10180.9957 477343.3899
 -3392.151019 -10180.9955 477343.39
 -10153.20101 -10153.17514 477248.0454
 -16833.28124 -10089.72207 477060.4882
 -23338.84563 -9974.049143 476788.9344
 -29509.81745 -9776.168528 476450.9088
 -35079.07802 -9441.51817 476080.022
 -39612.10984 -8888.289205 475734.9581
 -42429.52134 -8111.541985 475505.8463
 42206.26264 -11993.7751 475443.6371
 38949.47999 -14482.31967 475652.2592
 34596.59591 -15566.79061 475954.4326
 29198.95187 -16156.30714 476296.4059
 23144.76846 -16505.34896 476616.9997
 16715.54517 -16715.51775 476878.4471
 10089.74973 -16833.25543 477060.4886
 3372.120025 -16885.32335 477153.4197
 -3372.11735 -16885.32342 477153.4197
 -10089.74696 -16833.2555 477060.4886
 -16715.54215 -16715.51773 476878.4472
 -23144.76519 -16505.34888 476616.9999
 -29198.94844 -16156.30645 476296.4061
 -34596.5923 -15566.79005 475954.4328
 -38949.47659 -14482.31828 475652.2596
 -42206.25971 -11993.77344 475443.6374
 0 0 0
 37076.60601 -20589.13216 475576.7911
 33666.7657 -21505.07539 475789.8191
 28648.90795 -22283.53815 476082.5089
 22806.29294 -22806.26695 476373.4024
 16505.37507 -23144.74127 476617.0002
 9974.076142 -23338.82039 476788.935
 3335.255593 -23424.73785 476877.3732
 -3335.252032 -23424.73789 476877.3732
 -9974.072431 -23338.82064 476788.9351
 -16505.37106 -23144.74167 476617.0003
 -22806.28867 -22806.26712 476373.4026
 -28648.90329 -22283.53844 476082.5092
 -33666.76107 -21505.07501 475789.8194
 -37076.60128 -20589.13172 475576.7915
 0 0 -0
 0 0 0
 36218.63409 -24477.00354 475458.6818
 32595.40012 -26517.24349 475611.4454
 27843.81132 -27843.78641 475837.4901
 22283.56321 -28648.88122 476082.5094
 16156.33216 -29198.92476 476296.4067
 9776.194871 -29509.79205 476450.9098
 3271.828024 -29643.85069 476531.6449
 -3271.82384 -29643.85096 476531.6449
 -9776.190439 -29509.79254 476450.9099
 -16156.32755 -29198.92545 476296.4068
 -22283.55811 -28648.88208 476082.5095
 -27843.8061 -27843.78685 475837.4904
 -32595.39458 -26517.24391 475611.4457
 -36218.62872 -24477.00342 475458.6823
 0 0 -0
 0 0 0
 0 0 0
 30664.85776 -30664.83424 475490.4896
 26517.26656 -32595.37488 475611.4458
 21505.09866 -33666.73918 475789.8199
 15566.81409 -34596.56803 475954.4338
 9441.543539 -35079.05247 476080.0233
 3166.577251 -35273.23101 476148.7617
 -3166.572647 -35273.23126 476148.7617
 -9441.538865 -35079.05316 476080.0234
 -15566.80894 -34596.56909 475954.4339
 -21505.09332 -33666.74017 475789.8201
 -26517.26079 -32595.37612 475611.4461
 -30664.85195 -30664.83502 475490.49
 0 0 -0
 0 0 -0
 0 0 0
 0 0 0
 0 0 0
 24477.02469 -36218.60731 475458.6828
 20589.15393 -37076.57851 475576.7923
 14482.34087 -38949.45099 475652.261
 8888.312806 -39612.08364 475734.9598
 3005.558724 -39846.96189 475788.8792
 -3005.553993 -39846.96218 475788.8792
 -8888.307881 -39612.08444 475734.9599
 -14482.33578 -38949.4522 475652.261
 -20589.14834 -37076.57996 475576.7924
 -24477.01893 -36218.60867 475458.683
 0 0 -0
 0 0 -0
 0 0 -0
 0 0 0
 0 0 0
 0 0 0
 0 0 0
 0 0 0
 11993.79472 -42206.23253 475443.6393
 8111.564546 -42429.49432 475505.8484
 2820.996424 -42586.32451 475552.6451
 -2820.991655 -42586.3248 475552.6451
 -8111.559698 -42429.49522 475505.8484
 -11993.78975 -42206.2337 475443.6393
 0 0 -0
 0 0 -0
 0 0 -0
 0 0 -0
 0 0 -0
 0 0 0
 0 0 0
 0 0 0
 0 0 0
 0 0 0
 8943.786676 31691.03449 476327.1547
 6099.514187 31870.18032 476360.1146
 2132.992804 31998.25297 476385.8032
 -2132.998587 31998.25263 476385.8031
 -6099.520011 31870.1795 476360.1146
 -8943.792617 31691.03333 476327.1547
 0 0 -0
 0 0 -0
 0 0 -0
 0 0 -0
 0 0 -0
 0 0 0
 0 0 0
 0 0 0
 18402.52468 27177.61011 476334.542
 15532.68872 27909.10349 476394.4677
 10926.1155 29429.09756 476430.9179
 6736.196666 30013.60879 476472.117
 2285.856579 30228.14262 476500.6879
 -2285.86226 30228.14243 476500.6879
 -6736.202527 30013.60793 476472.1169
 -10926.12151 29429.09633 476430.9178
 -15532.69516 27909.10204 476394.4675
 -18402.53127 27177.60863 476334.5418
 0 0 -0
 0 0 -0
 0 0 -0
 0 0 0
 0 0 0
 23043.54816 23043.57201 476350.5642
 20026.40206 24598.50705 476409.2022
 16339.10218 25550.97319 476499.7931
 11873.60875 26386.44606 476586.4498
 7226.285425 26842.33252 476654.1107
 2428.737085 27030.81052 476692.0471
 -2428.742574 27030.81015 476692.0471
 -7226.290993 26842.33184 476654.1107
 -11873.61472 26386.44503 476586.4498
 -16339.10833 25550.97195 476499.7929
 -20026.40858 24598.50589 476409.202
 -23043.55476 23043.57108 476350.5639
 0 0 -0
 0 0 -0
 0 0 0
 27177.5866 18402.54883 476334.5424
 24598.4835 20026.42598 476409.2024
 21177.04647 21177.07071 476523.8039
 17061.22618 21926.48598 476655.0273
 12425.43891 22450.64971 476774.0011
 7540.33005 22755.26504 476861.8381
 2527.253708 22889.06854 476908.3506
 -2527.2587 22889.06847 476908.3505
 -7540.335277 22755.26442 476861.838
 -12425.44429 22450.64887 476774.001
 -17061.23202 21926.48523 476655.0271
 -21177.05251 21177.06994 476523.8037
 -24598.4897 20026.42567 476409.2021
 -27177.5927 18402.54888 476334.542
 0 0 -0
 0 0 0
 27909.08043 15532.71291 476394.4682
 25550.94933 16339.12647 476499.7935
 21926.46193 17061.25072 476655.0275
 17565.18824 17565.21248 476817.3642
 12764.68897 17897.38143 476957.6687
 7732.527273 18090.91742 477058.4849
 2588.679391 18177.64419 477110.8291
 -2588.683699 18177.64389 477110.8291
 -7732.531753 18090.91721 477058.4848
 -12764.69365 17897.38102 476957.6686
 -17565.19329 17565.21205 476817.364
 -21926.46711 17061.25059 476655.0273
 -25550.95472 16339.12662 476499.7932
 -27909.08582 15532.71344 476394.4679
 0 0 -0
 31691.01452 8943.810065 476327.1556
 29429.07564 10926.13903 476430.9187
 26386.42351 11873.63283 476586.4505
 22450.62502 12425.46337 476774.0016
 17897.35699 12764.71367 476957.669
 12972.79129 12972.81668 477111.3958
 7847.079415 13090.90676 477219.9941
 2625.120257 13143.63216 477275.8374
 -2625.123681 13143.63218 477275.8374
 -7847.082781 13090.90665 477219.9941
 -12972.79511 12972.8165 477111.3957
 -17897.36072 12764.71385 476957.6688
 -22450.62928 12425.46382 476774.0014
 -26386.42763 11873.63358 476586.4502
 -29429.07969 10926.14039 476430.9184
 -31691.01808 8943.811843 476327.1553
 31870.16173 6099.536332 476360.1156
 30013.58838 6736.219297 476472.1179
 26842.31023 7226.309575 476654.1116
 22755.2412 7540.355594 476861.8388
 18090.89161 7732.55335 477058.4855
 13090.88049 7847.1054 477219.9944
 7910.738406 7910.764743 477332.9146
 2645.198303 7938.934015 477390.6655
 -2645.200491 7938.934168 477390.6655
 -7910.740837 7910.764648 477332.9145
 -13090.88275 7847.105828 477219.9944
 -18090.89437 7732.553699 477058.4854
 -22755.24366 7540.356383 476861.8387
 -26842.31311 7226.310912 476654.1114
 -30013.59103 6736.220884 476472.1177
 -31870.16428 6099.538422 476360.1154
 31998.23558 2133.014686 476385.8042
 30228.12402 2285.879369 476500.6889
 27030.78927 2428.761487 476692.0482
 22889.04417 2527.279858 476908.3516
 18177.61794 2588.705674 477110.83
 13143.60622 2625.148399 477275.838
 7938.907625 2645.225647 477390.6658
 2654.035457 2654.062552 477449.2469
 -2654.036445 2654.062483 477449.2469
 -7938.908541 2645.225924 477390.6658
 -13143.60733 2625.148626 477275.8379
 -18177.61886 2588.706362 477110.83
 -22889.04546 2527.281025 476908.3515
 -27030.79024 2428.762905 476692.0482
 -30228.12518 2285.881389 476500.6889
 -31998.23665 2133.016761 476385.8041
 31998.23604 -2132.975966 476385.8044
 30228.12451 -2285.838569 476500.6891
 27030.78966 -2428.717463 476692.0484
 22889.04491 -2527.231895 476908.3518
 18177.61857 -2588.657021 477110.8302
 13143.60678 -2625.095621 477275.8382
 7938.907846 -2645.172449 477390.6661
 2654.035765 -2654.008086 477449.2472
 -2654.035423 -2654.007964 477449.2472
 -7938.907489 -2645.172296 477390.6661
 -13143.6063 -2625.095122 477275.8383
 -18177.61812 -2588.656315 477110.8303
 -22889.04426 -2527.230908 476908.3518
 -27030.78918 -2428.715842 476692.0485
 -30228.12392 -2285.836805 476500.6892
 -31998.23551 -2132.973749 476385.8044
 31870.164 -6099.496882 476360.116
 30013.59061 -6736.178539 476472.1184
 26842.3124 -7226.265629 476654.1122
 22755.24277 -7540.30921 476861.8395
 18090.89334 -7732.504759 477058.4862
 13090.88205 -7847.055241 477219.9952
 7910.740041 -7910.713053 477332.9154
 2645.199915 -7938.88032 477390.6664
 -2645.198298 -7938.880368 477390.6664
 -7910.738381 -7910.712935 477332.9154
 -13090.88021 -7847.055072 477219.9953
 -18090.89137 -7732.504142 477058.4863
 -22755.24067 -7540.308274 476861.8396
 -26842.3102 -7226.264473 476654.1123
 -30013.58849 -6736.176749 476472.1185
 -31870.16201 -6099.494986 476360.1161
 31691.01858 -8943.770406 476327.1561
 29429.07986 -10926.0982 476430.9194
 26386.42743 -11873.5901 476586.4513
 22450.62797 -12425.41824 476774.0026
 17897.35911 -12764.66665 476957.6702
 12972.79334 -12972.76711 477111.3971
 7847.08175 -13090.8553 477219.9955
 2625.123118 -13143.58023 477275.8388
 -2625.120427 -13143.58024 477275.8388
 -7847.078868 -13090.85532 477219.9956
 -12972.79033 -12972.7671 477111.3972
 -17897.35578 -12764.66652 476957.6703
 -22450.62448 -12425.41787 476774.0028
 -26386.42386 -11873.58911 476586.4516
 -29429.07639 -10926.09711 476430.9196
 -31691.01561 -8943.768602 476327.1563
 0 0 0
 27909.08503 -15532.67121 476394.4693
 25550.95373 -16339.08247 476499.7948
 21926.46541 -17061.20581 476655.029
 17565.19107 -17565.1663 476817.3658
 12764.69173 -17897.33344 476957.6704
 7732.530349 -18090.86699 477058.4868
 2588.682831 -18177.59214 477110.8311
 -2588.679206 -18177.59236 477110.8311
 -7732.5266 -18090.86727 477058.4868
 -12764.6877 -17897.33378 476957.6705
 -17565.18674 -17565.16659 476817.3659
 -21926.46087 -17061.20576 476655.0292
 -25550.94895 -16339.08231 476499.7951
 -27909.08033 -15532.67061 476394.4696
 0 0 -0
 0 0 0
 27177.59054 -18402.5064 476334.5438
 24598.48731 -20026.38382 476409.204
 21177.04985 -21177.02559 476523.8057
 17061.22959 -21926.44004 476655.0293
 12425.44258 -22450.60186 476774.0032
 7540.333982 -22755.2169 476861.8403
 2527.25796 -22889.01867 476908.3529
 -2527.253702 -22889.01875 476908.3529
 -7540.329616 -22755.21744 476861.8404
 -12425.43782 -22450.60252 476774.0033
 -17061.22459 -21926.44074 476655.0295
 -21177.04445 -21177.02627 476523.806
 -24598.48189 -20026.38405 476409.2043
 -27177.5851 -18402.5063 476334.5441
 0 0 -0
 0 0 0
 0 0 0
 23043.55259 -23043.52993 476350.566
 20026.40549 -24598.46344 476409.2043
 16339.10576 -25550.92839 476499.7954
 11873.61242 -26386.4015 476586.4522
 7226.288995 -26842.28603 476654.1133
 2428.741359 -27030.76358 476692.0498
 -2428.736762 -27030.76382 476692.0498
 -7226.284131 -26842.28671 476654.1133
 -11873.60743 -26386.4025 476586.4523
 -16339.10024 -25550.92961 476499.7955
 -20026.39984 -24598.46436 476409.2045
 -23043.54669 -23043.53075 476350.5662
 0 0 -0
 0 0 -0
 0 0 0
 0 0 0
 0 0 0
 18402.52691 -27177.56529 476334.5445
 15532.69209 -27909.05902 476394.4702
 10926.11906 -29429.05262 476430.9206
 6736.199852 -30013.56428 476472.1197
 2285.86083 -30228.09864 476500.6906
 -2285.856025 -30228.0989 476500.6907
 -6736.194987 -30013.56518 476472.1197
 -10926.11382 -29429.05372 476430.9206
 -15532.68655 -27909.06034 476394.4703
 -18402.52109 -27177.56672 476334.5446
 0 0 -0
 0 0 -0
 0 0 -0
 0 0 0
 0 0 0
 0 0 0
 0 0 0
 0 0 0
 8943.789943 -31690.99051 476327.1576
 6099.517027 -31870.13731 476360.1175
 2132.996896 -31998.21027 476385.806
 -2132.992079 -31998.21062 476385.806
 -6099.512106 -31870.13809 476360.1175
 -8943.784951 -31690.99172 476327.1576
 0 0 -0
 0 0 -0
 0 0 -0
 0 0 -0
 0 0 -0
 0 0 0
 0 0 0
 0 0 0
 0 0 0
 0 0 0
 5494.42217 19524.49219 477032.9934
 3758.633741 19639.86287 477045.092
 1317.610774 19723.09454 477054.6454
 -1317.616319 19723.09425 477054.6454
 -3758.639398 19639.86207 477045.0919
 -5494.427871 19524.49104 477032.9934
 0 0 -0
 0 0 -0
 0 0 -0
 0 0 -0
 0 0 -0
 0 0 0
 0 0 0
 0 0 0
 11348.15888 16741.36763 477035.4465
 9593.211824 17219.78763 477056.9363
 6749.729852 18188.0536 477069.7089
 4169.98505 18577.05821 477084.2435
 1417.531258 18723.97253 477094.6182
 -1417.536778 18723.97228 477094.6182
 -4169.990604 18577.05734 477084.2435
 -6749.735762 18188.05252 477069.7089
 -9593.217979 17219.78624 477056.9363
 -11348.1653 16741.36623 477035.4464
 0 0 -0
 0 0 -0
 0 0 -0
 0 0 0
 0 0 0
 14206.07172 14206.09668 477041.1362
 12375.8395 15193.89216 477061.6894
 10130.46083 15832.31451 477093.8931
 7380.559978 16398.7003 477125.226
 4501.654114 16717.69662 477150.0026
 1515.03334 16852.60625 477164.0867
 -1515.038587 16852.60586 477164.0867
 -4501.65964 16717.69609 477150.0026
 -7380.565563 16398.6991 477125.2259
 -10130.46696 15832.31347 477093.893
 -12375.84574 15193.89099 477061.6893
 -14206.07815 14206.09589 477041.136
 0 0 -0
 0 0 -0
 0 0 0
 16741.34236 11348.18334 477035.4468
 15193.8672 12375.86437 477061.6896
 13138.30891 13138.33383 477102.3374
 10630.53708 13658.74094 477150.1879
 7767.130579 14030.99563 477194.5873
 4723.708696 14252.18204 477227.863
 1584.994492 14350.91311 477245.6499
 -1584.999396 14350.91306 477245.6499
 -4723.713601 14252.18135 477227.8629
 -7767.135996 14030.99513 477194.5872
 -10630.54256 13658.73996 477150.1878
 -13138.31483 13138.33334 477102.3372
 -15193.87317 12375.86392 477061.6894
 -16741.34831 11348.18349 477035.4466
 0 0 -0
 0 0 0
 17219.76293 9593.236436 477056.9367
 15832.28938 10130.48587 477093.8934
 13658.71489 10630.56235 477150.188
 10991.59934 10991.6247 477210.897
 8013.39315 11234.55444 477264.5405
 4864.069909 11378.38831 477303.6187
 1629.953194 11443.58203 477324.0608
 -1629.957369 11443.58192 477324.0607
 -4864.074272 11378.38807 477303.6186
 -8013.397646 11234.5539 477264.5404
 -10991.60423 10991.62452 477210.8969
 -13658.71999 10630.56217 477150.1879
 -15832.29462 10130.48618 477093.8933
 -17219.76811 9593.236973 477056.9365
 0 0 -0
 19524.46946 5494.445211 477032.9941
 18188.02935 6749.753131 477069.7095
 16398.67543 7380.583898 477125.2265
 14030.97009 7767.155652 477194.5876
 11234.52838 8013.418742 477264.5407
 8167.717295 8167.743154 477324.2584
 4949.495772 8256.564934 477366.9479
 1657.176934 8296.59281 477389.0359
 -1657.180175 8296.592743 477389.0359
 -4949.499203 8256.564775 477366.9478
 -8167.720814 8167.743277 477324.2583
 -11234.53222 8013.418734 477264.5406
 -14030.97395 7767.156067 477194.5875
 -16398.67951 7380.584733 477125.2263
 -18188.03331 6749.754359 477069.7093
 -19524.47287 5494.447053 477032.9939
 19639.84165 3758.655595 477045.0927
 18577.03517 4170.007958 477084.2442
 16717.67248 4501.678356 477150.0033
 14252.15615 4723.73398 477227.8635
 11378.36198 4864.096095 477303.619
 8256.538177 4949.52205 477366.9481
 4997.623154 4997.649996 477411.6867
 1672.382009 5019.132299 477434.6895
 -1672.384181 5019.132232 477434.6895
 -4997.625295 4997.650223 477411.6866
 -8256.540552 4949.522046 477366.948
 -11378.36434 4864.096719 477303.619
 -14252.15889 4723.73482 477227.8634
 -16717.675 4501.679603 477150.0032
 -18577.03774 4170.009696 477084.2441
 -19639.8441 3758.657567 477045.0925
 19723.07445 1317.632228 477054.6462
 18723.95116 1417.55368 477094.619
 16852.58234 1515.058049 477164.0875
 14350.88746 1585.020608 477245.6506
 11443.55477 1629.979905 477324.0613
 8296.56667 1657.20448 477389.0363
 5019.105517 1672.409665 477434.6897
 1679.132722 1679.160424 477458.0947
 -1679.133588 1679.160459 477458.0947
 -5019.106438 1672.409822 477434.6897
 -8296.567582 1657.20499 477389.0363
 -11443.55579 1629.980529 477324.0613
 -14350.88832 1585.021678 477245.6506
 -16852.58346 1515.059553 477164.0874
 -18723.95216 1417.555543 477094.619
 -19723.07541 1317.634424 477054.6462
 19723.07474 -1317.593952 477054.6463
 18723.95154 -1417.513318 477094.6191
 16852.58281 -1515.013217 477164.0876
 14350.88788 -1584.972939 477245.6508
 11443.55543 -1629.931052 477324.0615
 8296.567091 -1657.152244 477389.0364
 5019.105587 -1672.356117 477434.6899
 1679.133002 -1679.104725 477458.0949
 -1679.132564 -1679.104561 477458.0949
 -5019.105108 -1672.356033 477434.6899