# OOMMF OVF 2.0
#
# Segment count: 1
#
# Begin: Segment
# Begin: Header
#
# Title: Oxs_MinDriver::Magnetization
# Desc: Oxs vector field output
# Desc:  MIF source file: F:/Bogdan/UNIC/2022/Master_degree/Samples/Cylinder11_7.mif
# Desc:  Iteration: 992, State id: 2230
# Desc:  Stage: 6, Stage iteration: 38
# Desc:  Stage simulation time: 0 s
# Desc:  Total simulation time: -2 s
# meshunit: m
# meshtype: rectangular
# xbase: -3.5000000000000003e-09
# ybase: -3.5000000000000003e-09
# zbase: -9.5000000000000007e-09
# xnodes: 8
# ynodes: 8
# znodes: 20
# xstepsize: 1.0000000000000001e-09
# ystepsize: 1.0000000000000001e-09
# zstepsize: 1.0000000000000001e-09
# xmin: -4.0000000000000002e-09
# ymin: -4.0000000000000002e-09
# zmin: -1e-08
# xmax: 4.0000000000000002e-09
# ymax: 4.0000000000000002e-09
# zmax: 1e-08
# valuedim: 3
# valuelabels: Magnetization_x Magnetization_y Magnetization_z
# valueunits: A/m A/m A/m
#
# End: Header
#
# Begin: Data Text
 0 0 0
 0 0 0
 2251.340106 6473.885559 477414.8003
 852.4886495 6557.532885 477418.2059
 -852.489986 6557.532885 477418.2059
 -2251.34144 6473.88556 477414.8003
 0 0 -0
 0 0 -0
 0 0 0
 4520.748683 4520.748999 477421.1945
 2879.563937 5052.18851 477428.5861
 995.5315551 5210.675428 477434.5286
 -995.5328937 5210.675429 477434.5286
 -2879.565274 5052.18851 477428.5861
 -4520.750019 4520.748999 477421.1945
 0 0 -0
 6473.885244 2251.340421 477414.8003
 5052.188204 2879.564243 477428.5861
 3185.149946 3185.150274 477442.7515
 1087.639988 3299.246702 477451.3622
 -1087.641328 3299.246704 477451.3622
 -3185.151285 3185.150272 477442.7515
 -5052.189542 2879.564244 477428.5861
 -6473.886579 2251.340421 477414.8003
 6557.532575 852.4889598 477418.2059
 5210.675103 995.5318799 477434.5286
 3299.246406 1087.640284 477451.3622
 1126.318165 1126.318504 477461.3431
 -1126.319507 1126.318498 477461.343
 -3299.247747 1087.640289 477451.3622
 -5210.676441 995.5318765 477434.5286
 -6557.533911 852.4889614 477418.2059
 6557.532568 -852.4896688 477418.2059
 5210.675127 -995.532591 477434.5286
 3299.246369 -1087.640994 477451.3622
 1126.31821 -1126.319218 477461.3431
 -1126.319552 -1126.319208 477461.343
 -3299.24771 -1087.641002 477451.3622
 -5210.676466 -995.5325859 477434.5286
 -6557.533903 -852.4896708 477418.2059
 6473.885249 -2251.341129 477414.8003
 5052.188187 -2879.564951 477428.5861
 3185.149976 -3185.150988 477442.7515
 1087.639951 -3299.247409 477451.3622
 -1087.641292 -3299.24742 477451.3622
 -3185.151315 -3185.15098 477442.7515
 -5052.189524 -2879.564956 477428.5861
 -6473.886585 -2251.341129 477414.8003
 0 0 0
 4520.748689 -4520.749709 477421.1945
 2879.56392 -5052.189217 477428.5861
 995.5315777 -5210.676143 477434.5286
 -995.5329163 -5210.676135 477434.5286
 -2879.565257 -5052.189223 477428.5861
 -4520.750026 -4520.749707 477421.1945
 0 0 -0
 0 0 0
 0 0 0
 2251.340111 -6473.886269 477414.8003
 852.4886426 -6557.533592 477418.2059
 -852.4899791 -6557.533596 477418.2059
 -2251.341445 -6473.886268 477414.8003
 0 0 -0
 0 0 -0
 0 0 0
 0 0 0
 1873.190045 5534.406118 477428.2489
 726.2288882 5611.971609 477430.4658
 -726.2301858 5611.97161 477430.4658
 -1873.191341 5534.406119 477428.2488
 0 0 -0
 0 0 -0
 0 0 0
 3850.35518 3850.355465 477432.949
 2476.823292 4385.361112 477437.436
 866.0732197 4562.551668 477441.4146
 -866.0745195 4562.551669 477441.4146
 -2476.82459 4385.361111 477437.4359
 -3850.356477 3850.355466 477432.949
 0 0 -0
 5534.405831 1873.190333 477428.2489
 4385.360797 2476.823607 477437.436
 2802.302441 2802.302696 477447.5526
 963.949671 2930.289079 477454.035
 -963.9509722 2930.289071 477454.035
 -2802.303742 2802.302703 477447.5526
 -4385.362095 2476.823602 477437.4359
 -5534.407129 1873.190335 477428.2488
 5611.971307 726.2291906 477430.4658
 4562.551406 866.0734836 477441.4146
 2930.288733 963.9500158 477454.035
 1006.892169 1006.892397 477461.8766
 -1006.893472 1006.892416 477461.8766
 -2930.290033 963.9499995 477454.035
 -4562.552706 866.0734945 477441.4145
 -5611.972603 726.2291873 477430.4658
 5611.971328 -726.2299026 477430.4658
 4562.551342 -866.0741938 477441.4146
 2930.288833 -963.9507331 477454.035
 1006.892049 -1006.893106 477461.8766
 -1006.893352 -1006.893135 477461.8766
 -2930.290135 -963.950709 477454.035
 -4562.55264 -866.0742092 477441.4145
 -5611.972626 -726.229898 477430.4658
 5534.40582 -1873.191042 477428.2489
 4385.360845 -2476.824323 477437.436
 2802.302361 -2802.3034 477447.5526
 963.9497684 -2930.289804 477454.035
 -963.9510701 -2930.289773 477454.035
 -2802.303662 -2802.303425 477447.5526
 -4385.362144 -2476.824309 477437.4359
 -5534.407117 -1873.191047 477428.2488
 0 0 0
 3850.355163 -3850.356175 477432.949
 2476.823338 -4385.361832 477437.4359
 866.0731596 -4562.55237 477441.4146
 -866.0744592 -4562.552393 477441.4145
 -2476.824636 -4385.361815 477437.4359
 -3850.356461 -3850.35618 477432.949
 0 0 -0
 0 0 0
 0 0 0
 1873.190035 -5534.406828 477428.2488
 726.2289078 -5611.972325 477430.4658
 -726.2302055 -5611.972318 477430.4658
 -1873.191331 -5534.406834 477428.2488
 0 0 -0
 0 0 -0
 0 0 0
 0 0 0
 1469.291467 4424.604787 477441.2376
 574.2351872 4489.511028 477442.5472
 -574.2364126 4489.51103 477442.5472
 -1469.29269 4424.604788 477441.2376
 0 0 -0
 0 0 -0
 0 0 0
 3068.822645 3068.822909 477444.2752
 1979.097854 3529.030873 477446.8561
 695.7396006 3692.21024 477449.217
 -695.740827 3692.210234 477449.217
 -1979.099081 3529.030879 477446.8561
 -3068.82387 3068.822907 477444.2752
 0 0 -0
 4424.604526 1469.291728 477441.2376
 3529.030651 1979.098077 477446.8561
 2274.316731 2274.317042 477453.1666
 786.734109 2397.315984 477457.3334
 -786.7353381 2397.316003 477457.3334
 -2274.317957 2274.317025 477453.1666
 -3529.031879 1979.098088 477446.8561
 -4424.605751 1469.291726 477441.2376
 4489.51079 574.235427 477442.5472
 3692.209941 695.7398985 477449.217
 2397.315804 786.7342898 477457.3334
 828.7195653 828.7199148 477462.5616
 -828.7207943 828.7198798 477462.5616
 -2397.317034 786.7343195 477457.3334
 -3692.211167 695.739879 477449.217
 -4489.512015 574.235434 477442.5472
 4489.510761 -574.2361442 477442.5472
 3692.210028 -695.74062 477449.217
 2397.31567 -786.7350048 477457.3334
 828.7197255 -828.7206415 477462.5616
 -828.7209553 -828.7205938 477462.5616
 -2397.316898 -786.7350443 477457.3334
 -3692.211256 -695.7405949 477449.217
 -4489.511986 -574.2361529 477442.5472
 4424.604544 -1469.292446 477441.2376
 3529.030588 -1979.09879 477446.8561
 2274.316838 -2274.317772 477453.1666
 786.7339791 -2397.316689 477457.3334
 -786.7352076 -2397.316738 477457.3334
 -2274.318065 -2274.317733 477453.1666
 -3529.031814 -1979.098812 477446.8561
 -4424.605769 -1469.292442 477441.2376
 0 0 0
 3068.822667 -3068.823631 477444.2752
 1979.097794 -3529.031582 477446.8561
 695.7396809 -3692.210974 477449.217
 -695.7409075 -3692.210939 477449.217
 -1979.09902 -3529.031608 477446.8561
 -3068.823893 -3068.823622 477444.2752
 0 0 -0
 0 0 0
 0 0 0
 1469.291483 -4424.605509 477441.2376
 574.235162 -4489.511742 477442.5472
 -574.2363873 -4489.511754 477442.5472
 -1469.292707 -4424.605504 477441.2376
 0 0 -0
 0 0 -0
 0 0 0
 0 0 0
 1114.969264 3400.724957 477450.5872
 436.775808 3451.218965 477451.327
 -436.7769311 3451.21896 477451.327
 -1114.970387 3400.724962 477450.5872
 0 0 -0
 0 0 -0
 0 0 0
 2352.045647 2352.045831 477452.4134
 1516.468782 2717.080376 477453.8607
 533.9839445 2850.488911 477455.1925
 -533.9850694 2850.488929 477455.1925
 -1516.469905 2717.080362 477453.8607
 -2352.046771 2352.045837 477452.4134
 0 0 -0
 3400.724771 1114.969451 477450.5872
 2717.080142 1516.469016 477453.8607
 1757.156719 1757.156851 477457.5333
 609.502234 1860.801787 477459.9849
 -609.5033591 1860.801751 477459.9849
 -1757.157846 1757.15688 477457.5333
 -2717.081265 1516.468998 477453.8607
 -3400.725895 1114.969457 477450.5872
 3451.218752 436.7760209 477451.327
 2850.488767 533.9840899 477455.1925
 1860.801506 609.5025154 477459.9849
 645.4730452 645.4731366 477463.1274
 -645.4741724 645.4731901 477463.1274
 -1860.80263 609.5024706 477459.9849
 -2850.489892 533.9841191 477455.1925
 -3451.219875 436.7760117 477451.3269
 3451.218781 -436.7767516 477451.327
 2850.488678 -533.9848184 477455.1925
 1860.801641 -609.5032511 477459.9849
 645.4728844 -645.4738634 477463.1274
 -645.4740109 -645.4739276 477463.1274
 -1860.802767 -609.5031979 477459.9849
 -2850.489803 -533.9848524 477455.1925
 -3451.219905 -436.7767411 477451.3269
 3400.724755 -1114.97018 477450.5872
 2717.080207 -1516.469751 477453.8607
 1757.156613 -1757.157573 477457.5333
 609.5023639 -1860.802531 477459.9849
 -609.5034895 -1860.802471 477459.9849
 -1757.157738 -1757.157621 477457.5333
 -2717.081331 -1516.469723 477453.8607
 -3400.725879 -1114.970188 477450.5872
 0 0 0
 2352.045626 -2352.046559 477452.4134
 1516.468843 -2717.081116 477453.8607
 533.9838652 -2850.48963 477455.1925
 -533.9849898 -2850.489672 477455.1925
 -1516.469966 -2717.081085 477453.8607
 -2352.04675 -2352.04657 477452.4134
 0 0 -0
 0 0 0
 0 0 0
 1114.969251 -3400.725687 477450.5872
 436.7758336 -3451.219701 477451.3269
 -436.7769568 -3451.219687 477451.3269
 -1114.970373 -3400.725696 477450.5872
 0 0 -0
 0 0 -0
 0 0 0
 0 0 0
 825.3212008 2539.100091 477456.5353
 323.5035863 2576.553219 477456.9384
 -323.5045819 2576.55323 477456.9384
 -825.322195 2539.100086 477456.5353
 0 0 -0
 0 0 -0
 0 0 0
 1751.72667 1751.726808 477457.5732
 1128.241055 2028.131834 477458.3595
 397.3470147 2130.213793 477459.0826
 -397.3480105 2130.213761 477459.0826
 -1128.242051 2028.131859 477458.3595
 -1751.727666 1751.726799 477457.5732
 0 0 -0
 2539.099957 825.3213342 477456.5353
 2028.13175 1128.241139 477458.3595
 1312.62531 1312.625502 477460.3914
 455.7193181 1393.233954 477461.7498
 -455.7203161 1393.23401 477461.7498
 -1312.626305 1312.625457 477460.3914
 -2028.132748 1128.241166 477458.3595
 -2539.100953 825.3213284 477456.5353
 2576.553114 323.503693 477456.9384
 2130.213616 397.3471915 477459.0826
 1393.233915 455.7193573 477461.7498
 483.9712817 483.971509 477463.5094
 -483.9722792 483.9714371 477463.5094
 -1393.234914 455.7194171 477461.7498
 -2130.214612 397.3471534 477459.0826
 -2576.55411 323.503706 477456.9384
 2576.553089 -323.5044407 477456.9384
 2130.213691 -397.3479411 477459.0826
 1393.233802 -455.7201048 477461.7498
 483.9714146 -483.9722612 477463.5094
 -483.9724125 -483.9721843 477463.5094
 -1393.2348 -455.7201685 477461.7498
 -2130.214687 -397.3479007 477459.0826
 -2576.554085 -323.5044544 477456.9384
 2539.099973 -825.322082 477456.5353
 2028.131697 -1128.241886 477458.3595
 1312.625399 -1312.626255 477460.3914
 455.7192119 -1393.234698 477461.7498
 -455.7202095 -1393.234766 477461.7498
 -1312.626395 -1312.626201 477460.3914
 -2028.132694 -1128.241917 477458.3595
 -2539.100969 -825.3220752 477456.5353
 0 0 0
 1751.726689 -1751.727558 477457.5732
 1128.241006 -2028.13258 477458.3595
 397.3470791 -2130.214549 477459.0826
 -397.3480751 -2130.214505 477459.0826
 -1128.242002 -2028.132613 477458.3595
 -1751.727685 -1751.727547 477457.5732
 0 0 -0
 0 0 0
 0 0 0
 825.3212142 -2539.100842 477456.5353
 323.5035666 -2576.553967 477456.9384
 -323.5045622 -2576.553982 477456.9384
 -825.3222084 -2539.100835 477456.5353
 0 0 -0
 0 0 -0
 0 0 0
 0 0 0
 595.8321883 1843.876286 477460.0679
 233.5670794 1870.690308 477460.2782
 -233.5679247 1870.690293 477460.2782
 -595.8330332 1843.876297 477460.0679
 0 0 -0
 0 0 -0
 0 0 0
 1269.436235 1269.436258 477460.6249
 816.6980164 1471.461401 477461.0341
 287.5337475 1546.194119 477461.4099
 -287.534594 1546.194168 477461.4099
 -816.6988611 1471.461366 477461.0341
 -1269.437081 1269.436271 477460.6249
 0 0 -0
 1843.87626 595.8322156 477460.0679
 1471.461325 816.6980913 477461.0341
 951.9804105 951.9803821 477462.1019
 330.5158062 1011.457815 477462.8143
 -330.5166524 1011.457741 477462.8143
 -951.9812584 951.980442 477462.1019
 -1471.462171 816.6980567 477461.0341
 -1843.877107 595.8322255 477460.0679
 1870.690255 233.5671325 477460.2782
 1546.194135 287.5337344 477461.4099
 1011.457699 330.5159222 477462.8143
 351.4616195 351.4615628 477463.7413
 -351.462467 351.4616507 477463.7413
 -1011.458545 330.5158497 477462.8143
 -1546.194982 287.5337803 477461.4099
 -1870.6911 233.567118 477460.2782
 1870.690274 -233.5679041 477460.2782
 1546.19408 -287.5345073 477461.4099
 1011.457781 -330.5166942 477462.8143
 351.4615246 -351.4623372 477463.7413
 -351.4623721 -351.462423 477463.7413
 -1011.458627 -330.5166234 477462.8143
 -1546.194927 -287.5345522 477461.4099
 -1870.69112 -233.5678899 477460.2782
 1843.876251 -595.8329871 477460.0679
 1471.461365 -816.6988623 477461.0341
 951.9803476 -951.9811573 477462.1019
 330.5158812 -1011.458586 477462.8143
 -330.5167275 -1011.458517 477462.8143
 -951.9811954 -951.9812133 477462.1019
 -1471.462211 -816.6988297 477461.0341
 -1843.877098 -595.8329965 477460.0679
 0 0 0
 1269.436222 -1269.437031 477460.6249
 816.6980515 -1471.462173 477461.0341
 287.5337035 -1546.194895 477461.4099
 -287.5345501 -1546.194939 477461.4099
 -816.6988962 -1471.462141 477461.0341
 -1269.437069 -1269.437043 477460.6249
 0 0 -0
 0 0 0
 0 0 0
 595.8321814 -1843.877061 477460.0679
 233.5670936 -1870.691081 477460.2782
 -233.5679388 -1870.691067 477460.2782
 -595.8330262 -1843.87707 477460.0679
 0 0 -0
 0 0 -0
 0 0 0
 0 0 0
 415.4866509 1290.877646 477462.0742
 162.8581971 1309.363378 477462.1769
 -162.8588743 1309.363398 477462.1769
 -415.487327 1290.877635 477462.0742
 0 0 -0
 0 0 -0
 0 0 0
 887.2688153 887.2687662 477462.3512
 570.2886536 1029.13013 477462.5503
 200.6957736 1081.515327 477462.7329
 -200.6964506 1081.515267 477462.7329
 -570.2893317 1029.130175 477462.5503
 -887.2694923 887.2687513 477462.3512
 0 0 -0
 1290.877698 415.4865978 477462.0742
 1029.13023 570.2885568 477462.5503
 665.3224545 665.3224526 477463.0729
 230.9198568 707.1594552 477463.4205
 -230.9205353 707.1595447 477463.4205
 -665.3231313 665.3223814 477463.0729
 -1029.130909 570.2885978 477462.5503
 -1290.878376 415.4865886 477462.0742
 1309.363457 162.8581208 477462.1769
 1081.51534 200.695756 477462.7329
 707.1595911 230.9197244 477463.4205
 245.6824368 245.6824581 477463.8736
 -245.683115 245.6823581 477463.8736
 -707.1602694 230.9198062 477463.4205
 -1081.516017 200.6957052 477462.7329
 -1309.364135 162.8581376 477462.1769
 1309.363445 -162.8589225 477462.1769
 1081.515378 -200.6965557 477462.7329
 707.1595365 -230.9205298 477463.4205
 245.682499 -245.6832564 477463.8736
 -245.6831768 -245.6831646 477463.8736
 -707.1602158 -230.9206052 477463.4205
 -1081.516055 -200.6965085 477462.7329
 -1309.364123 -162.8589382 477462.1769
 1290.877707 -415.4873973 477462.0742
 1029.130204 -570.2893623 477462.5503
 665.3224964 -665.3232473 477463.0729
 230.9198088 -707.1602675 477463.4205
 -230.9204876 -707.1603377 477463.4205
 -665.3231725 -665.3231909 477463.0729
 -1029.130883 -570.2893957 477462.5503
 -1290.878385 -415.4873898 477462.0742
 0 0 0
 887.2688249 -887.2695662 477462.3512
 570.2886321 -1029.13094 477462.5503
 200.6958014 -1081.516121 477462.7329
 -200.6964782 -1081.516079 477462.7329
 -570.2893107 -1029.130971 477462.5503
 -887.2695017 -887.2695554 477462.3512
 0 0 -0
 0 0 0
 0 0 0
 415.4866575 -1290.878447 477462.0742
 162.8581894 -1309.364184 477462.1769
 -162.8588666 -1309.364198 477462.1769
 -415.4873335 -1290.87844 477462.0742
 0 0 -0
 0 0 -0
 0 0 0
 0 0 0
 271.9518903 847.1122989 477463.1711
 106.5854513 859.0846471 477463.2152
 -106.5859452 859.0846244 477463.2152
 -271.9523842 847.1123127 477463.1711
 0 0 -0
 0 0 -0
 0 0 0
 581.563672 581.5634899 477463.2916
 373.5335984 674.7847432 477463.3771
 131.4049906 709.1217217 477463.4553
 -131.4054855 709.1217893 477463.4553
 -373.5340917 674.784694 477463.3771
 -581.5641668 581.5635069 477463.2916
 0 0 -0
 847.1124791 271.9517128 477463.1711
 674.7848801 373.5334581 477463.3771
 435.9338523 435.9336279 477463.602
 151.2492226 463.3956063 477463.7512
 -151.2497169 463.395508 477463.7512
 -435.934348 435.9337056 477463.602
 -674.7853741 373.5334143 477463.3771
 -847.1129742 271.9517243 477463.1711
 859.0848024 106.5852926 477463.2152
 709.1219394 131.4047825 477463.4553
 463.3957096 151.249113 477463.7512
 160.9456032 160.9453576 477463.9457
 -160.9460982 160.9454651 477463.9457
 -463.3962044 151.2490258 477463.7512
 -709.1224341 131.4048363 477463.4553
 -859.085297 106.5852758 477463.2152
 859.0848118 -106.5861273 477463.2152
 709.1219144 -131.4056208 477463.4553
 463.3957458 -151.2499451 477463.7512
 160.945563 -160.9461997 477463.9457
 -160.9460586 -160.9462965 477463.9457
 -463.3962392 -151.2498662 477463.7512
 -709.1224105 -131.4056699 477463.4553
 -859.0853059 -106.5861118 477463.2152
 847.1124758 -271.9525486 477463.1711
 674.7848986 -373.5342886 477463.3771
 435.9338256 -435.9344743 477463.602
 151.2492535 -463.3964305 477463.7512
 -151.2497473 -463.3963574 477463.7512
 -435.9343224 -435.9345328 477463.602
 -674.7853916 -373.5342549 477463.3771
 -847.1129712 -271.9525579 477463.1711
 0 0 0
 581.5636674 -581.564329 477463.2916
 373.5336132 -674.7855717 477463.3771
 131.4049738 -709.122571 477463.4553
 -131.4054689 -709.1226145 477463.4553
 -373.5341059 -674.7855396 477463.3771
 -581.5641625 -581.5643408 477463.2916
 0 0 -0
 0 0 0
 0 0 0
 271.9518886 -847.1131395 477463.1711
 106.5854569 -859.0854799 477463.2152
 -106.5859507 -859.0854664 477463.2152
 -271.9523826 -847.1131482 477463.1711
 0 0 -0
 0 0 -0
 0 0 0
 0 0 0
 153.5274704 478.9672147 477463.7351
 60.16622098 485.6734893 477463.7492
 -60.16652182 485.6735129 477463.7492
 -153.5277705 478.9672018 477463.7351
 0 0 -0
 0 0 -0
 0 0 0
 328.5721954 328.5719183 477463.7739
 210.9416739 381.3106722 477463.8011
 74.18756112 400.696075 477463.8261
 -74.18786144 400.6960065 477463.8261
 -210.9419756 381.3107223 477463.8011
 -328.5724958 328.5719017 477463.7739
 0 0 -0
 478.967494 153.5271904 477463.7351
 381.3109888 210.9413627 477463.8011
 246.2117633 246.2115222 477463.873
 85.40016022 261.723003 477463.9206
 -85.4004618 261.7231029 477463.9206
 -246.2120632 246.2114438 477463.873
 -381.3112907 210.9414068 477463.8011
 -478.967795 153.52718 477463.7351
 485.6737911 60.16592519 477463.7492
 400.6963204 74.18730484 477463.8261
 261.723351 85.39982126 477463.9206
 90.87768101 90.87746131 477463.9827
 -90.87798214 90.87735105 477463.9827
 -261.7236522 85.39991007 477463.9206
 -400.6966214 74.18725083 477463.8261
 -485.6740921 60.16594242 477463.7492
 485.6737859 -60.16679979 477463.7492
 400.6963374 -74.18817722 477463.8261
 261.7233271 -85.40069984 477463.9206
 90.87770781 -90.87833221 477463.9827
 -90.87800838 -90.87823076 477463.9827
 -261.7236297 -85.40078173 477463.9206
 -400.6966372 -74.18812714 477463.8261
 -485.6740873 -60.1668159 477463.7492
 478.9674988 -153.5280627 477463.7351
 381.3109776 -210.9422414 477463.8011
 246.2117818 -246.2123893 477463.873
 85.40013976 -261.7238891 477463.9206
 -85.4004418 -261.7239682 477463.9206
 -246.2120807 -246.2123267 477463.873
 -381.3112804 -210.9422773 477463.8011
 -478.9677995 -153.5280542 477463.7351
 0 0 0
 328.5722003 -328.5727912 477463.7739
 210.9416651 -381.3115553 477463.8011
 74.18757304 -400.6969409 477463.8261
 -74.1878731 -400.6968922 477463.8261
 -210.9419674 -381.3115913 477463.8011
 -328.5725004 -328.5727789 477463.7739
 0 0 -0
 0 0 0
 0 0 0
 153.5274741 -478.9680894 477463.7351
 60.16621815 -485.6743693 477463.7492
 -60.16651906 -485.6743853 477463.7492
 -153.5277741 -478.9680807 477463.7351
 0 0 -0
 0 0 -0
 0 0 0
 0 0 0
 49.59946952 154.8491743 477463.9723
 19.43663855 157.0069029 477463.9738
 -19.43673927 157.0068812 477463.9738
 -49.59957066 154.8491868 477463.9723
 0 0 -0
 0 0 -0
 0 0 0
 106.1874117 106.1869965 477463.9764
 68.15624302 123.2407932 477463.9792
 23.9672088 129.5021805 477463.9818
 -23.96731037 129.5022446 477463.9818
 -68.1563428 123.2407467 477463.9792
 -106.1875132 106.1870121 477463.9764
 0 0 -0
 154.849589 49.59905847 477463.9723
 123.2411774 68.1558549 477463.9792
 79.55513324 79.55468756 477463.9867
 27.59001244 84.56560439 477463.9917
 -27.59011284 84.56550956 477463.9917
 -79.55523571 79.5547616 477463.9867
 -123.2412774 68.15581387 477463.9792
 -154.8496904 49.5990686 477463.9723
 157.0072991 19.43623846 477463.9738
 129.5026244 23.96677671 477463.9818
 84.56596014 27.58964837 477463.9917
 29.35948961 29.35902135 477463.9982
 -29.35959091 29.35912956 477463.9982
 -84.56606078 27.58956199 477463.9917
 -129.5027259 23.96682865 477463.9818
 -157.0074001 19.43622228 477463.9738
 157.0073031 -19.4371544 477463.9738
 129.5026149 -23.96769422 477463.9818
 84.56597505 -27.59056415 477463.9917
 29.35947257 -29.35994068 477463.9982
 -29.35957415 -29.3600455 477463.9982
 -84.56607502 -27.59048044 477463.9917
 -129.5027169 -23.96774465 477463.9818
 -157.0074038 -19.43713865 477463.9738
 154.8495888 -49.59997433 477463.9723
 123.2411853 -68.15676971 477463.9792
 79.5551221 -79.55560833 477463.9867
 27.59002623 -84.56651806 477463.9917
 -27.5901264 -84.56643125 477463.9917
 -79.55522508 -79.55567624 477463.9867
 -123.2412848 -68.15673186 477463.9792
 -154.8496903 -49.59998376 477463.9723
 0 0 0
 106.1874104 -106.1879148 477463.9764
 68.15625017 -123.2417084 477463.9792
 23.96720091 -129.5031025 477463.9818
 -23.9673026 -129.503159 477463.9818
 -68.15634969 -123.2416674 477463.9792
 -106.1875121 -106.1879287 477463.9764
 0 0 -0
 0 0 0
 0 0 0
 49.59946962 -154.8500943 477463.9723
 19.43664175 -157.0078198 477463.9738
 -19.43674244 -157.007801 477463.9738
 -49.59957081 -154.8501051 477463.9723
 0 0 -0
 0 0 -0
 0 0 0
 0 0 0
 -49.59947091 -154.8501167 477463.9723
 -19.43663958 -157.0078423 477463.9738
 19.43674029 -157.0078235 477463.9738
 49.5995721 -154.8501275 477463.9723
 0 0 -0
 0 0 -0
 0 0 0
 -106.1874122 -106.1879373 477463.9764
 -68.15624522 -123.2417307 477463.9792
 -23.96720755 -129.5031251 477463.9818
 23.96730922 -129.5031812 477463.9818
 68.15634481 -123.2416904 477463.9792
 106.1875138 -106.1879509 477463.9764
 0 0 -0
 -154.84959 -49.59999696 477463.9723
 -123.2411804 -68.15679152 477463.9792
 -79.55513049 -79.55563153 477463.9867
 -27.59001582 -84.5665398 477463.9917
 27.59011607 -84.5664547 477463.9917
 79.55523334 -79.55569743 477463.9867
 123.2412801 -68.15675542 477463.9792
 154.8496915 -49.60000584 477463.9723
 -157.007301 -19.43717634 477463.9738
 -129.5026214 -23.96771795 477463.9818
 -84.5659647 -27.59058512 477463.9917
 -29.35948509 -29.35996462 477463.9982
 29.3595866 -29.3600664 477463.9982
 84.56606486 -27.59050468 477463.9917
 129.5027233 -23.96776557 477463.9818
 157.0074018 -19.43716168 477463.9738
 -157.0073012 19.43621544 477463.9738
 -129.5026179 23.96675578 477463.9818
 -84.56597047 27.58962413 477463.9917
 -29.35947709 29.35900045 477463.9982
 29.35957847 29.35910561 477463.9982
 84.56607095 27.58954104 477463.9917
 129.5027195 23.96680491 477463.9818
 157.0074021 19.43620035 477463.9738
 -154.8495877 49.59903639 477463.9723
 -123.2411823 68.15583134 477463.9792
 -79.55512486 79.55466639 477463.9867
 -27.59002283 84.56558092 477463.9917
 27.59012317 84.56548785 477463.9917
 79.55522746 79.55473838 477463.9867
 123.2412821 68.15579208 477463.9792
 154.8496892 49.59904597 477463.9723
 0 0 0
 -106.1874099 106.1869744 477463.9764
 -68.15624796 123.2407702 477463.9792
 -23.96720216 129.5021583 477463.9818
 23.96730377 129.502222 477463.9818
 68.15634768 123.2407244 477463.9792
 106.1875115 106.1869896 477463.9764
 0 0 -0
 0 0 0
 0 0 0
 -49.59946822 154.8491519 477463.9723
 -19.4366407 157.0068804 477463.9738
 19.43674143 157.0068586 477463.9738
 49.59956939 154.8491643 477463.9723
 0 0 -0
 0 0 -0
 0 0 0
 0 0 0
 -153.527473 -478.9681563 477463.7351
 -60.16622029 -485.6744362 477463.7492
 60.16652121 -485.6744522 477463.7492
 153.527773 -478.9681478 477463.7351
 0 0 -0
 0 0 -0
 0 0 0
 -328.5721986 -328.5728575 477463.7739
 -210.9416699 -381.311623 477463.8011
 -74.18756663 -400.6970073 477463.8261
 74.18786671 -400.6969599 477463.8261
 210.9419722 -381.3116571 477463.8011
 328.5724988 -328.5728465 477463.7739
 0 0 -0
 -478.9674977 -153.5281287 477463.7351
 -381.3109823 -210.9423106 477463.8011
 -246.2117738 -246.2124535 477463.873
 -85.4001498 -261.7239585 477463.9206
 85.40045181 -261.7240324 477463.9206
 246.2120727 -246.2123969 477463.873
 381.3112851 -210.9423413 477463.8011
 478.9677985 -153.5281218 477463.7351
 -485.6737879 -60.16686818 477463.7492
 -400.6963312 -74.18824014 477463.8261
 -261.7233371 -85.40077144 477463.9206
 -90.87769575 -90.87839477 477463.9827
 90.87799636 -90.87830225 477463.9827
 261.7236396 -85.40084372 477463.9206
 400.696631 -74.18819825 477463.8261
 485.6740894 -60.16688112 477463.7492
 -485.673789 60.16585997 477463.7492
 -400.6963266 74.18723375 477463.8261
 -261.7233411 85.39975925 477463.9206
 -90.87769304 90.87738982 477463.9827
 90.87799415 90.8772885 477463.9827
 261.7236424 85.39983844 477463.9206
 400.6966276 74.18718793 477463.8261
 485.67409 60.16587402 477463.7492
 -478.9674951 153.5271227 477463.7351
 -381.310984 210.9412986 477463.8011
 -246.2117713 246.211452 477463.873
 -85.40015024 261.7229388 477463.9206
 85.40045186 261.7230335 477463.9206
 246.2120712 246.2113796 477463.873
 381.311286 210.9413376 477463.8011
 478.9677961 153.527114 477463.7351
 0 0 0
 -328.572197 328.5718507 477463.7739
 -210.9416691 381.3106064 477463.8011
 -74.18756745 400.6960074 477463.8261
 74.18786777 400.6959401 477463.8261
 210.9419709 381.3106546 477463.8011
 328.5724974 328.5718353 477463.7739
 0 0 -0
 0 0 0
 0 0 0
 -153.5274715 478.9671476 477463.7351
 -60.16621886 485.6734224 477463.7492
 60.16651972 485.6734461 477463.7492
 153.5277716 478.9671349 477463.7351
 0 0 -0
 0 0 -0
 0 0 0
 0 0 0
 -271.9518899 -847.1132497 477463.1711
 -106.5854549 -859.0855899 477463.2152
 106.5859488 -859.0855763 477463.2152
 271.9523839 -847.1132581 477463.1711
 0 0 -0
 0 0 -0
 0 0 0
 -581.563669 -581.5644398 477463.2916
 -373.5336087 -674.7856803 477463.3771
 -131.4049798 -709.1226819 477463.4553
 131.405475 -709.1227234 477463.4553
 373.5341014 -674.7856513 477463.3771
 581.5641641 -581.5644496 477463.2916
 0 0 -0
 -847.112477 -271.9526596 477463.1711
 -674.7848943 -373.5343947 477463.3771
 -435.9338331 -435.9345888 477463.602
 -151.2492441 -463.3965364 477463.7512
 151.2497379 -463.3964718 477463.7512
 435.9343299 -435.9346377 477463.602
 674.7853873 -373.5343691 477463.3771
 847.1129724 -271.9526663 477463.1711
 -859.08481 -106.5862347 477463.2152
 -709.1219202 -131.405737 477463.4553
 -463.3957366 -151.2500476 477463.7512
 -160.9455742 -160.9463168 477463.9457
 160.9460699 -160.9463994 477463.9457
 463.3962299 -151.249984 477463.7512
 709.1224163 -131.4057732 477463.4553
 859.0853041 -106.5862242 477463.2152
 -859.0848042 106.5851803 477463.2152
 -709.1219337 131.4046791 477463.4553
 -463.3957187 151.2489952 477463.7512
 -160.945592 160.9452547 477463.9457
 160.946087 160.9453479 477463.9457
 463.3962136 151.2489233 477463.7512
 709.1224283 131.4047201 477463.4553
 859.0852989 106.5851684 477463.2152
 -847.1124779 271.9516044 477463.1711
 -674.7848844 373.5333439 477463.3771
 -435.9338449 435.9335229 477463.602
 -151.2492318 463.3954919 477463.7512
 151.2497261 463.3954021 477463.7512
 435.9343405 435.9335911 477463.602
 674.7853784 373.5333083 477463.3771
 847.112973 271.9516133 477463.1711
 0 0 0
 -581.5636704 581.563381 477463.2916
 -373.5336027 674.7846315 477463.3771
 -131.4049848 709.1216128 477463.4553
 131.4054796 709.1216783 477463.4553
 373.5340961 674.7845854 477463.3771
 581.5641652 581.5633961 477463.2916
 0 0 -0
 0 0 0
 0 0 0
 -271.951889 847.1121891 477463.1711
 -106.5854531 859.0845372 477463.2152
 106.585947 859.0845143 477463.2152
 271.9523829 847.1122026 477463.1711
 0 0 -0
 0 0 -0
 0 0 0
 0 0 0
 -415.4866566 -1290.878598 477462.0742
 -162.8581913 -1309.364335 477462.1769
 162.8588685 -1309.364348 477462.1769
 415.4873326 -1290.878591 477462.0742
 0 0 -0
 0 0 -0
 0 0 0
 -887.2688236 -887.2697156 477462.3512
 -570.2886363 -1029.131092 477462.5503
 -200.6957959 -1081.51627 477462.7329
 200.6964727 -1081.516231 477462.7329
 570.2893149 -1029.13112 477462.5503
 887.2695004 -887.2697073 477462.3512
 0 0 -0
 -1290.877706 -415.4875461 477462.0742
 -1029.130208 -570.2895179 477462.5503
 -665.3224896 -665.323392 477463.0729
 -230.9198173 -707.1604237 477463.4205
 230.9204962 -707.1604828 477463.4205
 665.3231655 -665.3233481 477463.0729
 1029.130887 -570.2895408 477462.5503
 1290.878384 -415.4875418 477462.0742
 -1309.363446 -162.8590761 477462.1769
 -1081.515373 -200.6966981 477462.7329
 -707.1595448 -230.9206903 477463.4205
 -245.6824888 -245.683398 477463.8736
 245.6831666 -245.6833248 477463.8736
 707.1602242 -230.920746 477463.4205
 1081.516049 -200.6966675 477462.7329
 1309.364124 -162.8590855 477462.1769
 -1309.363455 162.8579735 477462.1769
 -1081.515345 200.6955971 477462.7329
 -707.1595829 230.9195836 477463.4205
 -245.6824468 245.6822979 477463.8736
 245.6831251 245.6822166 477463.8736
 707.1602611 230.9196457 477463.4205
 1081.516023 200.6955627 477462.7329
 1309.364133 162.8579839 477462.1769
 -1290.877699 415.4864458 477462.0742
 -1029.130226 570.2884116 477462.5503
 -665.322461 665.3222955 477463.0729
 -230.9198486 707.15931 477463.4205
 230.920527 707.1593884 477463.4205
 665.3231379 665.3222367 477463.0729
 1029.130905 570.2884422 477462.5503
 1290.878377 415.4864397 477462.0742
 0 0 0
 -887.2688166 887.2686142 477462.3512
 -570.2886496 1029.129982 477462.5503
 -200.6957788 1081.515175 477462.7329
 200.6964558 1081.515118 477462.7329
 570.2893277 1029.130022 477462.5503
 887.2694936 887.2686019 477462.3512
 0 0 -0
 0 0 0
 0 0 0
 -415.4866517 1290.877495 477462.0742
 -162.8581953 1309.363227 477462.1769
 162.8588725 1309.363248 477462.1769
 415.4873278 1290.877484 477462.0742
 0 0 -0
 0 0 -0
 0 0 0
 0 0 0
 -595.8321826 -1843.87725 477460.0679
 -233.567092 -1870.691269 477460.2782
 233.5679373 -1870.691256 477460.2782
 595.8330274 -1843.877258 477460.0679
 0 0 -0
 0 0 -0
 0 0 0
 -1269.436224 -1269.43722 477460.6249
 -816.6980479 -1471.462359 477461.0341
 -287.5337085 -1546.195085 477461.4099