# ODT 1.0
# Table Start
# Title: mmArchive Data Table, Mon Dec 12 00:32:22 EET 2022
# Columns: {Oxs_CGEvolve:minEvolver:Max mxHxm} {Oxs_CGEvolve:minEvolver:Total energy} {Oxs_CGEvolve:minEvolver:Delta E} {Oxs_CGEvolve:minEvolver:Bracket count} {Oxs_CGEvolve:minEvolver:Line min count} {Oxs_CGEvolve:minEvolver:Conjugate cycle count} {Oxs_CGEvolve:minEvolver:Cycle count} {Oxs_CGEvolve:minEvolver:Cycle sub count} {Oxs_CGEvolve:minEvolver:Energy calc count} Oxs_UZeeman:AppliedFiled:Energy Oxs_UZeeman:AppliedFiled:B Oxs_UZeeman:AppliedFiled:Bx Oxs_UZeeman:AppliedFiled:By Oxs_UZeeman:AppliedFiled:Bz Oxs_UniformExchange:Ni:Energy {Oxs_UniformExchange:Ni:Max Spin Ang} {Oxs_UniformExchange:Ni:Stage Max Spin Ang} {Oxs_UniformExchange:Ni:Run Max Spin Ang} Oxs_Demag::Energy    Oxs_MinDriver::Iteration {Oxs_MinDriver::Stage iteration} Oxs_MinDriver::Stage Oxs_MinDriver::mx    Oxs_MinDriver::my    Oxs_MinDriver::mz   
# Units:                   A/m                                   J                                    J                                   {}                                       {}                                          {}                                         {}                                      {}                                         {}                                     J                            mT                         mT                          mT                          mT                            J                                deg                                      deg                                        deg                            J                       {}                           {}                         {}                 {}                   {}                   {}           
                   0.099314371170326585                   8.3397982574016467e-19                -2.8888949165808538e-34                  346                                      233                                         43                                         301                                     141                                        580                                   0                             0                          0                           0                           0                            5.1690065722947933e-21               1.5011998410886003                       180                                        180                             8.288108191678699e-19    542                          542                        0                    8.8795338612622083e-13 -0.99943389286081785  3.0422945691738518e-09
                   0.086950230618683289                  -3.3967802893411994e-19                -4.8148248609680896e-35                  502                                      361                                         49                                         441                                     118                                        865                                  -6.7189259800793516e-19           100                        0                           0                           100                          5.0986408088023266e-21               1.2039924020645283                       8.2093765204496538                         180                             3.2711592826501295e-19    810                          267                        1                   -4.6346288923356589e-12 -5.4336608105184002e-08  0.9994396382739168 
                   0.092030906270814269                  -1.011591924837237e-18                 1.9259299443872359e-34                  527                                      385                                         50                                         465                                     23                                         915                                  -1.3438679554168485e-18           200                        0                           0                           200                          4.560259839737209e-21               1.1361896533611853                       1.2039924020645283                         180                             3.2771577073987433e-19    858                          47                         2                   -2.4351278785299904e-12 -2.8386731054795142e-08  0.99950119054136477
                   0.090530470637427377                  -1.6835438161109475e-18                 0                                    551                                      408                                         51                                         488                                     22                                         963                                  -2.0159065152442491e-18           300                        0                           0                           300                          4.1050432739317895e-21               1.0755488959964261                       1.1361896533611853                         180                             3.2825765585936978e-19    904                          45                         3                   -1.0897453368400405e-12 -1.2683817595448848e-08  0.99955304581082749
                   0.097077091283368944                  -2.3555278675840654e-18                 0                                    575                                      430                                         52                                         511                                     22                                         1010                                 -2.6879939467774095e-18           400                        0                           0                           400                          3.7165121990099152e-21               1.0209806544603501                       1.0755488959964261                         180                             3.2874956699433409e-19    949                          44                         4                   -4.0990330550159354e-13 -4.7702311980080043e-09  0.99959714760020502
                   0.089317082820553576                  -3.027539385864095e-18                 0                                    599                                      452                                         53                                         534                                     22                                         1057                                 -3.3601195833093793e-18           499.99999999999994         0                           0                           500                          3.382100104445729e-21               0.97160763666945527                      1.0209806544603501                         180                             3.2919809734083828e-19    994                          44                         5                   -1.3091857676207577e-13 -1.5231390237892494e-09  0.9996349746541392 
                   0.072932294001000528                  -3.6995745524160232e-18                -7.7037197775489434e-34                  623                                      474                                         54                                         557                                     22                                         1104                                 -4.0322753740672837e-18           600                        0                           0                           600                          3.092084998319737e-21               0.9267152719451458                       0.97160763666945527                        180                             3.2960873665294117e-19    1039                         44                         6                   -3.5359382755781208e-14 -4.1476498021099054e-10  0.99966766842077792
# Table End
#
# Table Start
# Title: mmArchive Data Table, Mon Dec 12 00:33:07 EET 2022
# Columns: {Oxs_CGEvolve:minEvolver:Max mxHxm} {Oxs_CGEvolve:minEvolver:Total energy} {Oxs_CGEvolve:minEvolver:Delta E} {Oxs_CGEvolve:minEvolver:Bracket count} {Oxs_CGEvolve:minEvolver:Line min count} {Oxs_CGEvolve:minEvolver:Conjugate cycle count} {Oxs_CGEvolve:minEvolver:Cycle count} {Oxs_CGEvolve:minEvolver:Cycle sub count} {Oxs_CGEvolve:minEvolver:Energy calc count} Oxs_UZeeman:AppliedFiled:Energy Oxs_UZeeman:AppliedFiled:B Oxs_UZeeman:AppliedFiled:Bx Oxs_UZeeman:AppliedFiled:By Oxs_UZeeman:AppliedFiled:Bz Oxs_UniformExchange:Ni:Energy {Oxs_UniformExchange:Ni:Max Spin Ang} {Oxs_UniformExchange:Ni:Stage Max Spin Ang} {Oxs_UniformExchange:Ni:Run Max Spin Ang} Oxs_Demag::Energy    Oxs_MinDriver::Iteration {Oxs_MinDriver::Stage iteration} Oxs_MinDriver::Stage Oxs_MinDriver::mx    Oxs_MinDriver::my    Oxs_MinDriver::mz   
# Units:                   A/m                                   J                                    J                                   {}                                       {}                                          {}                                         {}                                      {}                                         {}                                     J                            mT                         mT                          mT                          mT                            J                                deg                                      deg                                        deg                            J                       {}                           {}                         {}                 {}                   {}                   {}           
                   0.099358862796324679                   8.3397982574016236e-19                -9.6296497219361793e-35                  317                                      221                                         43                                         273                                     133                                        539                                   0                             0                          0                           0                           0                            5.1690065262340737e-21               1.5011999127627322                       180                                        180                             8.2881081921392842e-19    508                          508                        0                    1.6024935161155655e-13 -0.99943389287872286 -5.2498493638505493e-11
                   0.076847916303094108                  -3.396780289341224e-19                 0                                    476                                      343                                         49                                         414                                     119                                        821                                  -6.7189259799919182e-19           100                        0                           0                           100                          5.0986409123745282e-21               1.2039922936894911                       9.3629541585070246                         180                             3.2711592815269488e-19    774                          265                        1                   -2.1779156269826096e-13 -1.3228484865727049e-08  0.99943963826091109
                   0.076955151157876212                  -1.0115919248372379e-18                -1.9259299443872359e-34                  501                                      366                                         50                                         438                                     23                                         870                                  -1.3438679554167751e-18           200                        0                           0                           200                          4.5602598397711325e-21               1.1361896552686583                       1.2039922936894911                         180                             3.2771577073976599e-19    821                          46                         2                   -8.5925399365126411e-14 -6.7888691881658894e-09  0.99950119054130993
                   0.091245720960899085                  -1.6835438161109476e-18                -1.9259299443872359e-34                  525                                      389                                         51                                         461                                     22                                         918                                  -2.0159065152442217e-18           300                        0                           0                           300                          4.1050432737996128e-21               1.0755488932795416                       1.1361896552686583                         180                             3.2825765585947426e-19    867                          45                         3                   -3.5503016693796445e-14 -3.0203893656685052e-09  0.99955304581081372
                   0.098468621846455037                  -2.3555278675840654e-18                 0                                    549                                      411                                         52                                         484                                     22                                         965                                  -2.6879939467774989e-18           400                        0                           0                           400                          3.7165121985957748e-21               1.0209806562294428                       1.0755488932795416                         180                             3.2874956699483758e-19    912                          44                         4                   -1.3051245957323766e-14 -1.1352767529335739e-09  0.99959714760023821
                   0.090312473629844112                  -3.0275393858640954e-18                -7.7037197775489434e-34                  573                                      433                                         53                                         507                                     22                                         1012                                 -3.3601195833094521e-18           499.99999999999994         0                           0                           500                          3.3821001041723748e-21               0.97160763309286746                      1.0209806562294428                         180                             3.2919809734118423e-19    957                          44                         5                   -4.2270275698357694e-15 -3.6262479313267047e-10  0.99963497465416096
                   0.070874346688074644                  -3.6995745524160232e-18                -7.7037197775489434e-34                  597                                      455                                         54                                         530                                     22                                         1059                                 -4.0322753740673145e-18           600                        0                           0                           600                          3.0920849982170744e-21               0.92671527312930857                      0.97160763309286746                        180                             3.2960873665307469e-19    1002                         44                         6                   -1.0696784488062499e-15 -9.8772866402403333e-11  0.99966766842078558
# Table End
#
# Table Start
# Title: mmArchive Data Table, Mon Dec 12 00:35:49 EET 2022
# Columns: {Oxs_CGEvolve:minEvolver:Max mxHxm} {Oxs_CGEvolve:minEvolver:Total energy} {Oxs_CGEvolve:minEvolver:Delta E} {Oxs_CGEvolve:minEvolver:Bracket count} {Oxs_CGEvolve:minEvolver:Line min count} {Oxs_CGEvolve:minEvolver:Conjugate cycle count} {Oxs_CGEvolve:minEvolver:Cycle count} {Oxs_CGEvolve:minEvolver:Cycle sub count} {Oxs_CGEvolve:minEvolver:Energy calc count} Oxs_UZeeman:AppliedFiled:Energy Oxs_UZeeman:AppliedFiled:B Oxs_UZeeman:AppliedFiled:Bx Oxs_UZeeman:AppliedFiled:By Oxs_UZeeman:AppliedFiled:Bz Oxs_UniformExchange:Ni:Energy {Oxs_UniformExchange:Ni:Max Spin Ang} {Oxs_UniformExchange:Ni:Stage Max Spin Ang} {Oxs_UniformExchange:Ni:Run Max Spin Ang} Oxs_Demag::Energy    Oxs_MinDriver::Iteration {Oxs_MinDriver::Stage iteration} Oxs_MinDriver::Stage Oxs_MinDriver::mx    Oxs_MinDriver::my    Oxs_MinDriver::mz   
# Units:                   A/m                                   J                                    J                                   {}                                       {}                                          {}                                         {}                                      {}                                         {}                                     J                            mT                         mT                          mT                          mT                            J                                deg                                      deg                                        deg                            J                       {}                           {}                         {}                 {}                   {}                   {}           
                   0.086498249918337697                   8.3397982574016294e-19                 0                                    314                                      209                                         45                                         264                                     118                                        524                                   0                             0                          0                           0                           0                            5.1690071874825471e-21               1.5012000507647767                       180                                        180                             8.2881081855268041e-19    483                          483                        0                   -7.3947556693557111e-13 -0.99943389277886308  1.7267912426501122e-10
                   0.066413818283920539                  -3.3967802893412259e-19                -4.8148248609680896e-35                  485                                      348                                         51                                         418                                     132                                        835                                  -6.7189259801004607e-19           100                        0                           0                           100                          5.09864073365843e-21               1.2039924373747732                       8.3391927997834774                         180                             3.2711592834226508e-19    778                          294                        1                   -5.6077394280418382e-14 -2.622727425926631e-09  0.99943963827705706
                   0.089181724085964836                  -1.0115919248372379e-18                -1.9259299443872359e-34                  510                                      371                                         52                                         442                                     23                                         884                                  -1.3438679554167568e-18           200                        0                           0                           200                          4.5602598398414891e-21               1.1361896562700717                       1.2039924373747732                         180                             3.2771577073967726e-19    825                          46                         2                   -1.716206069238707e-14 -1.2367264987778874e-09  0.99950119054129627
                   0.089573198237820506                  -1.6835438161109476e-18                -1.9259299443872359e-34                  534                                      394                                         53                                         465                                     22                                         932                                  -2.0159065152442726e-18           300                        0                           0                           300                          4.1050432735346079e-21               1.0755488899311381                       1.1361896562700717                         180                             3.2825765585979035e-19    871                          45                         3                   -6.4895586432397389e-15 -5.3727300301098775e-10  0.99955304581083926
                   0.097715448135725622                  -2.3555278675840654e-18                 0                                    558                                      416                                         54                                         488                                     22                                         979                                  -2.6879939467775166e-18           400                        0                           0                           400                          3.7165121985085475e-21               1.02098065747449                         1.0755488899311381                         180                             3.2874956699494264e-19    916                          44                         4                   -2.3636350274822064e-15 -2.0061074160743013e-10  0.99959714760024487
                   0.089902538629575882                  -3.0275393858640954e-18                -3.8518598887744717e-34                  582                                      438                                         55                                         511                                     22                                         1026                                 -3.3601195833093823e-18           499.99999999999994         0                           0                           500                          3.3821001044433833e-21               0.97160763144073925                      1.02098065747449                           180                             3.2919809734084382e-19    961                          44                         5                   -7.5996804053541544e-16 -6.3908633789577985e-11  0.99963497465414031
                   0.074424094764185517                  -3.6995745524160224e-18                 0                                    606                                      460                                         56                                         534                                     22                                         1073                                 -4.0322753740672991e-18           600                        0                           0                           600                          3.0920849982766962e-21               0.92671527399159437                      0.97160763144073925                        180                             3.2960873665299924e-19    1006                         44                         6                   -2.1634272061110435e-16 -1.7395093834178138e-11  0.99966766842078147
# Table End
#
# Table Start
# Title: mmArchive Data Table, Mon Dec 12 00:37:55 EET 2022
# Columns: {Oxs_CGEvolve:minEvolver:Max mxHxm} {Oxs_CGEvolve:minEvolver:Total energy} {Oxs_CGEvolve:minEvolver:Delta E} {Oxs_CGEvolve:minEvolver:Bracket count} {Oxs_CGEvolve:minEvolver:Line min count} {Oxs_CGEvolve:minEvolver:Conjugate cycle count} {Oxs_CGEvolve:minEvolver:Cycle count} {Oxs_CGEvolve:minEvolver:Cycle sub count} {Oxs_CGEvolve:minEvolver:Energy calc count} Oxs_UZeeman:AppliedFiled:Energy Oxs_UZeeman:AppliedFiled:B Oxs_UZeeman:AppliedFiled:Bx Oxs_UZeeman:AppliedFiled:By Oxs_UZeeman:AppliedFiled:Bz Oxs_UniformExchange:Ni:Energy {Oxs_UniformExchange:Ni:Max Spin Ang} {Oxs_UniformExchange:Ni:Stage Max Spin Ang} {Oxs_UniformExchange:Ni:Run Max Spin Ang} Oxs_Demag::Energy    Oxs_MinDriver::Iteration {Oxs_MinDriver::Stage iteration} Oxs_MinDriver::Stage Oxs_MinDriver::mx    Oxs_MinDriver::my    Oxs_MinDriver::mz   
# Units:                   A/m                                   J                                    J                                   {}                                       {}                                          {}                                         {}                                      {}                                         {}                                     J                            mT                         mT                          mT                          mT                            J                                deg                                      deg                                        deg                            J                       {}                           {}                         {}                 {}                   {}                   {}           
                   0.072698162178705811                   8.3397982574016178e-19                 0                                    341                                      240                                         43                                         291                                     151                                        582                                   0                             0                          0                           0                           0                            5.1690066641808026e-21               1.5011999049682223                       180                                        180                             8.288108190759808e-19    544                          544                        0                    9.8450457122772351e-13 -0.99943389285206119  3.2971492788412538e-10
                   0.090515983783347256                  -3.3967802893412191e-19                -1.4444474582904269e-34                  497                                      365                                         49                                         430                                     117                                        864                                  -6.7189259801875503e-19           100                        0                           0                           100                          5.0986406254273015e-21               1.2039922829422058                       8.2196593856708944                         180                             3.2711592845920586e-19    810                          265                        1                    4.7375951696457818e-12 -2.4613498484565867e-08  0.99943963829001148
                   0.08122092943322215                  -1.0115919248372377e-18                -1.9259299443872359e-34                  522                                      388                                         50                                         454                                     23                                         913                                  -1.3438679554167456e-18           200                        0                           0                           200                          4.5602598399744445e-21               1.136189665007052                        1.2039922829422058                         180                             3.2771577073953334e-19    857                          46                         2                    2.4923090869395227e-12 -1.2840277355475584e-08  0.99950119054128805
                   0.091903893537207126                  -1.6835438161109475e-18                 0                                    546                                      411                                         51                                         477                                     22                                         961                                  -2.0159065152443515e-18           300                        0                           0                           300                          4.1050432730920766e-21               1.0755488880454238                       1.136189665007052                          180                             3.2825765586031175e-19    903                          45                         3                    1.1165523441726411e-12 -5.7395362437425489e-09  0.99955304581087823
                   0.098296970244593787                  -2.3555278675840654e-18                 0                                    570                                      433                                         52                                         500                                     22                                         1008                                 -2.6879939467775886e-18           400                        0                           0                           400                          3.7165121982155203e-21               1.020980662116872                        1.0755488880454238                         180                             3.287495669953077e-19    948                          44                         4                    4.207605082057376e-13 -2.1608548939423189e-09  0.99959714760027174