# OOMMF OVF 2.0
#
# Segment count: 1
#
# Begin: Segment
# Begin: Header
#
# Title: Oxs_MinDriver::Magnetization
# Desc: Oxs vector field output
# Desc:  MIF source file: F:/Bogdan/UNIC/2022/Master_degree/Samples/Cylinder11_7.mif
# Desc:  Iteration: 1368, State id: 2972
# Desc:  Stage: 2, Stage iteration: 54
# Desc:  Stage simulation time: 0 s
# Desc:  Total simulation time: -2 s
# meshunit: m
# meshtype: rectangular
# xbase: -1.5000000000000002e-08
# ybase: -1.5000000000000002e-08
# zbase: -8.9999999999999995e-09
# xnodes: 16
# ynodes: 16
# znodes: 10
# xstepsize: 2.0000000000000001e-09
# ystepsize: 2.0000000000000001e-09
# zstepsize: 2.0000000000000001e-09
# xmin: -1.6000000000000001e-08
# ymin: -1.6000000000000001e-08
# zmin: -1e-08
# xmax: 1.6000000000000001e-08
# ymax: 1.6000000000000001e-08
# zmax: 1e-08
# valuedim: 3
# valuelabels: Magnetization_x Magnetization_y Magnetization_z
# valueunits: A/m A/m A/m
#
# End: Header
#
# Begin: Data Text
 0 0 0
 0 0 0
 0 0 0
 0 0 0
 0 0 0
 13381.58783 46278.18905 475027.5083
 8846.47558 46498.54721 475112.0881
 3045.124661 46647.07549 475170.1262
 -3045.119975 46647.0758 475170.1262
 -8846.470946 46498.5481 475112.0881
 -13381.58328 46278.19035 475027.5083
 0 0 -0
 0 0 -0
 0 0 -0
 0 0 -0
 0 0 -0
 0 0 0
 0 0 0
 0 0 0
 26815.85662 39783.79752 475047.3983
 22354.10369 40489.95925 475218.6113
 15737.80214 42154.83736 475338.9975
 9568.634965 42652.71867 475458.787
 3216.882782 42828.6712 475528.3671
 -3216.878213 42828.67155 475528.3671
 -9568.630461 42652.71969 475458.787
 -15737.79776 42154.83903 475338.9975
 -22354.09951 40489.9616 475218.6113
 -26815.85261 39783.80028 475047.3982
 0 0 -0
 0 0 -0
 0 0 -0
 0 0 0
 0 0 0
 33604.65703 33604.61545 475092.9679
 28740.43567 35354.30747 475285.1056
 23059.99959 36169.08281 475533.285
 16600.48606 36887.98244 475747.3825
 10018.54044 37227.60992 475905.038
 3350.19618 37359.49802 475988.3564
 -3350.191862 37359.4984 475988.3564
 -10018.53618 37227.61108 475905.038
 -16600.48192 36887.98431 475747.3825
 -23059.99562 36169.08536 475533.285
 -28740.43189 35354.31052 475285.1056
 -33604.6535 33604.61894 475092.9679
 0 0 -0
 0 0 -0
 0 0 0
 39783.83833 26815.81473 475047.3972
 35354.34898 28740.39359 475285.105
 29809.48599 29809.44381 475599.2671
 23630.30992 30396.6323 475909.1557
 17030.69212 30787.76509 476165.8748
 10265.70345 30995.65402 476346.2565
 3428.898924 31081.13873 476438.9539
 -3428.89498 31081.13916 476438.9539
 -10265.69957 30995.65527 476346.2565
 -17030.68834 30787.76715 476165.8748
 -23630.30629 30396.63503 475909.1557
 -29809.48255 29809.44716 475599.2671
 -35354.34575 28740.39734 475285.1051
 -39783.83536 26815.81883 475047.3972
 0 0 -0
 0 0 0
 40489.99996 22354.06126 475218.6098
 36169.12421 23059.95695 475533.2839
 30396.67439 23630.26722 475909.1551
 23992.71373 23992.67104 476256.8348
 17268.36358 24218.0247 476536.6326
 10399.83589 24339.97532 476729.777
 3471.932266 24391.10591 476827.9469
 -3471.92882 24391.10635 476827.9469
 -10399.83249 24339.97668 476729.777
 -17268.36027 24218.02686 476536.6326
 -23992.71055 23992.674 476256.8348
 -30396.67137 23630.27072 475909.1552
 -36169.12138 23059.96098 475533.284
 -40489.99728 22354.06553 475218.6099
 0 0 -0
 46278.22863 13381.54577 475027.5056
 42154.87774 15737.75952 475338.9954
 36888.02357 16600.44316 475747.3808
 30787.80695 17030.649 476165.8737
 24218.06713 17268.32053 476536.632
 17402.17702 17402.13421 476829.3209
 10471.49016 17471.67618 477029.307
 3494.474235 17500.40422 477130.3761
 -3494.471384 17500.40471 477130.3761
 -10471.48735 17471.67757 477029.307
 -17402.17428 17402.13653 476829.3209
 -24218.06449 17268.32355 476536.632
 -30787.80445 17030.65276 476165.8737
 -36888.02122 16600.44733 475747.3808
 -42154.87558 15737.76408 475338.9954
 -46278.22675 13381.55052 475027.5057
 46498.58643 8846.433211 475112.0851
 42652.75859 9568.592257 475458.7843
 37227.65063 10018.49733 475905.0357
 30995.69545 10265.66025 476346.2547
 24340.01729 10399.79268 476729.7758
 17471.71854 10471.4472 477029.3064
 10507.15348 10507.11102 477232.7227
 3505.424731 10521.45539 477335.1886
 -3505.422561 10521.45587 477335.1886
 -10507.15132 10507.11249 477232.7227
 -17471.71645 10471.44952 477029.3064
 -24340.01527 10399.79588 476729.7759
 -30995.69351 10265.66402 476346.2548
 -37227.64882 10018.50171 475905.0358
 -42652.75689 9568.596902 475458.7843
 -46498.58486 8846.438073 475112.0851
 46647.11424 3045.082225 475170.1227
 42828.71058 3216.840019 475528.3638
 37359.53816 3350.15321 475988.3535
 31081.17952 3428.855746 476438.9515
 24391.14726 3471.889182 476827.9451
 17500.44589 3494.431406 477130.3749
 10521.49719 3505.382364 477335.188
 3509.74656 3509.704925 477438.2001
 -3509.745111 3509.705436 477438.2001
 -10521.49577 3505.383823 477335.188
 -17500.44448 3494.433831 477130.3749
 -24391.1459 3471.892335 476827.9451
 -31081.17821 3428.859682 476438.9516
 -37359.53689 3350.157554 475988.3536
 -42828.7094 3216.844794 475528.3639
 -46647.11308 3045.087122 475170.1228
 46647.11403 -3045.16225 475170.1222
 42828.71036 -3216.920689 475528.3633
 37359.53781 -3350.234594 475988.353
 31081.17922 -3428.93777 476438.9509
 24391.14686 -3471.971577 476827.9445
 17500.44555 -3494.513853 477130.3743
 10521.49677 -3505.46452 477335.1874
 3509.746227 -3509.786417 477438.1995
 -3509.745537 -3509.78593 477438.1995
 -10521.49607 -3505.463023 477335.1874
 -17500.44487 -3494.511498 477130.3743
 -24391.14617 -3471.968328 476827.9446
 -31081.17853 -3428.933954 476438.951
 -37359.53714 -3350.230151 475988.353
 -42828.70966 -3216.915986 475528.3634
 -46647.11335 -3045.157334 475170.1223
 46498.58589 -8846.512794 475112.0836
 42652.75778 -9568.672461 475458.7827
 37227.64974 -10018.57834 475905.0341
 30995.69439 -10265.74183 476346.253
 24340.01625 -10399.87462 476729.7741
 17471.71739 -10471.52921 477029.3046
 10507.15239 -10507.1927 477232.721
 3505.423571 -10521.53643 477335.1868
 -3505.423608 -10521.53593 477335.1868
 -10507.15243 -10507.19128 477232.721
 -17471.71739 -10471.52682 477029.3047
 -24340.01623 -10399.87153 476729.7742
 -30995.69434 -10265.73797 476346.2531
 -37227.6496 -10018.57407 475905.0342
 -42652.75762 -9568.667769 475458.7828
 -46498.58561 -8846.507962 475112.0838
 46278.22779 -13381.62459 475027.5035
 42154.87643 -15737.83909 475338.9928
 36888.02201 -16600.52338 475747.3781
 30787.80533 -17030.7298 476165.8709
 24218.06536 -17268.40164 476536.6291
 17402.17526 -17402.21532 476829.318
 10471.4883 -17471.757 477029.3041
 3494.472456 -17500.48439 477130.3732
 -3494.473196 -17500.48394 477130.3732
 -10471.48901 -17471.75557 477029.3041
 -17402.17593 -17402.21308 476829.318
 -24218.06597 -17268.39855 476536.6292
 -30787.80584 -17030.72616 476165.871
 -36888.02246 -16600.51916 475747.3782
 -42154.8767 -15737.8346 475338.993
 -46278.22783 -13381.61983 475027.5036
 0 0 0
 40489.9981 -22354.14017 475218.6063
 36169.1222 -23060.03626 475533.2802
 30396.67216 -23630.34688 475909.1513
 23992.71143 -23992.75095 476256.8309
 17268.36114 -24218.10458 476536.6286
 10399.83348 -24340.05487 476729.773
 3471.929811 -24391.18485 476827.9429
 -3471.931172 -24391.18438 476827.9429
 -10399.83481 -24340.05356 476729.7731
 -17268.36242 -24218.10238 476536.6287
 -23992.7126 -23992.74808 476256.831
 -30396.67323 -23630.34333 475909.1514
 -36169.12311 -23060.03231 475533.2804
 -40489.99891 -22354.1359 475218.6064
 0 0 -0
 0 0 0
 39783.83638 -26815.89263 475047.393
 35354.34656 -28740.47167 475285.1005
 29809.48337 -29809.52215 475599.2624
 23630.30709 -30396.71074 475909.1508
 17030.68923 -30787.84346 476165.8699
 10265.70048 -30995.73205 476346.2515
 3428.896002 -31081.21615 476438.9488
 -3428.897886 -31081.21575 476438.9489
 -10265.70234 -30995.73078 476346.2515
 -17030.69099 -30787.84146 476165.8699
 -23630.30875 -30396.70799 475909.1509
 -29809.48486 -29809.51888 475599.2625
 -35354.34789 -28740.46791 475285.1006
 -39783.83748 -26815.88857 475047.3931
 0 0 -0
 0 0 0
 0 0 0
 33604.65436 -33604.69249 475092.9626
 28740.43271 -35354.38442 475285.1
 23059.99646 -36169.15973 475533.2793
 16600.48276 -36888.05914 475747.3766
 10018.53713 -37227.68629 475905.0321
 3350.192841 -37359.57378 475988.3504
 -3350.19514 -37359.57337 475988.3505
 -10018.53937 -37227.68516 475905.0321
 -16600.48492 -36888.05727 475747.3767
 -23059.99846 -36169.15723 475533.2794
 -28740.43457 -35354.38137 475285.1002
 -33604.656 -33604.68905 475092.9628
 0 0 -0
 0 0 -0
 0 0 0
 0 0 0
 0 0 0
 26815.85365 -39783.87329 475047.3921
 22354.10037 -40490.03479 475218.605
 15737.79864 -42154.91254 475338.991
 9568.631422 -42652.79336 475458.7803
 3216.879217 -42828.74532 475528.3604
 -3216.881792 -42828.74499 475528.3604
 -9568.633953 -42652.79234 475458.7804
 -15737.80106 -42154.91091 475338.991
 -22354.1026 -40490.03246 475218.6051
 -26815.85574 -39783.87057 475047.3922
 0 0 -0
 0 0 -0
 0 0 -0
 0 0 0
 0 0 0
 0 0 0
 0 0 0
 0 0 0
 13381.58438 -46278.26294 475027.5012
 8846.472029 -46498.62063 475112.081
 3045.120996 -46647.14829 475170.1191
 -3045.123713 -46647.14798 475170.1191
 -8846.474704 -46498.61975 475112.081
 -13381.58699 -46278.26165 475027.5012
 0 0 -0
 0 0 -0
 0 0 -0
 0 0 -0
 0 0 -0
 0 0 0
 0 0 0
 0 0 0
 0 0 0
 0 0 0
 11219.79031 39412.2469 475702.2834
 7578.726532 39613.93693 475757.4699
 2633.369659 39755.05064 475798.7732
 -2633.365091 39755.05095 475798.7732
 -7578.722021 39613.93781 475757.4699
 -11219.78588 39412.2482 475702.2834
 0 0 -0
 0 0 -0
 0 0 -0
 0 0 -0
 0 0 -0
 0 0 0
 0 0 0
 0 0 0
 22850.29957 33820.81464 475716.1839
 19205.869 34597.09055 475821.4447
 13509.37062 36318.57138 475888.9887
 8284.983012 36912.22967 475962.9373
 2799.808377 37118.2494 476010.7855
 -2799.803936 37118.24974 476010.7855
 -8284.97862 36912.2307 475962.9373
 -13509.36636 36318.57302 475888.9887
 -19205.86494 34597.0929 475821.4447
 -22850.29568 33820.81736 475716.1839
 0 0 -0
 0 0 -0
 0 0 -0
 0 0 0
 0 0 0
 28625.50811 28625.46704 475744.7154
 24728.04504 30400.21501 475853.1517
 20025.06179 31356.00782 476012.2572
 14479.02045 32179.27718 476158.2966
 8773.234817 32595.33263 476269.2998
 2940.707569 32758.76265 476329.8091
 -2940.70337 32758.76305 476329.8091
 -8773.23069 32595.33376 476269.2998
 -14479.01642 32179.27907 476158.2966
 -20025.05795 31356.01031 476012.2572
 -24728.04138 30400.21809 475853.1517
 -28625.50468 28625.47049 475744.7154
 0 0 -0
 0 0 -0
 0 0 0
 33820.85497 22850.25823 475716.183
 30400.25603 24728.00345 475853.1513
 25918.91108 25918.8695 476054.927
 20701.48603 26617.21123 476271.8172
 14984.30745 27082.89304 476459.7136
 9056.046323 27338.15209 476594.6755
 3028.858478 27445.20131 476664.9329
 -3028.854662 27445.20171 476664.9329
 -9056.04255 27338.15337 476594.6755
 -14984.30379 27082.89502 476459.7137
 -20701.48252 26617.21402 476271.8172
 -25918.90775 25918.87274 476054.927
 -30400.25292 24728.00724 475853.1513
 -33820.85211 22850.26228 475716.183
 0 0 -0
 0 0 0
 34597.13081 19205.82706 475821.4434
 31356.04868 20025.0198 476012.2562
 26617.25282 20701.44381 476271.8167
 21138.86105 21138.81896 476527.1977
 15268.87745 21411.86386 476739.1999
 9214.227097 21562.46178 476887.8585
 3078.984009 21626.91466 476964.0109
 -3078.980681 21626.91514 476964.0109
 -9214.223821 21562.46307 476887.8585
 -15268.87426 21411.86609 476739.1999
 -21138.85798 21138.82178 476527.1977
 -26617.24992 20701.44741 476271.8167
 -31356.04594 20025.0237 476012.2563
 -34597.12824 19205.83134 475821.4435
 0 0 -0
 39412.28611 11219.74876 475702.2811
 36318.61127 13509.32864 475888.9869
 32179.31783 14478.97799 476158.2951
 27082.93433 14984.265 476459.7126
 21411.90575 15268.83492 476739.1994
 15431.49437 15431.45211 476964.9993
 9300.979433 15517.89687 477121.1146
 3106.157744 15554.49389 477200.4619
 -3106.155017 15554.49432 477200.4619
 -9300.976732 15517.89832 477121.1146
 -15431.49175 15431.4543 476964.9993
 -21411.90323 15268.83806 476739.1994
 -27082.93193 14984.26856 476459.7127
 -32179.3156 14478.98226 476158.2951
 -36318.6092 13509.33308 475888.9869
 -39412.28433 11219.75351 475702.2811
 39613.97574 7578.68473 475757.4674
 36912.26915 8284.940753 475962.9349
 32595.37282 8773.192406 476269.2978
 27338.19298 9056.003572 476594.674
 21562.50325 9214.184487 476887.8574
 15517.93864 9300.937049 477121.114
 9345.531102 9345.489135 477281.0432
 3119.869398 9363.981164 477361.9733
 -3119.867335 9363.981688 477361.9733
 -9345.529084 9345.490527 477281.0432
 -15517.93665 9300.939472 477121.114
 -21562.50133 9214.187494 476887.8574
 -27338.19117 9056.007502 476594.674
 -32595.37109 8773.196579 476269.2979
 -36912.26757 8284.945468 475962.935
 -39613.97426 7578.68952 475757.4674
 39755.08899 2633.327696 475798.7703
 37118.28835 2799.766245 476010.7827
 32758.80226 2940.665036 476329.8066
 27445.24163 3028.815954 476664.9308
 21626.95544 3078.941435 476964.0093
 15554.53506 3106.115435 477200.4608
 9364.022376 3119.827638 477361.9728
 3125.485899 3125.444724 477443.5404
 -3125.484576 3125.44519 477443.5404
 -9364.021032 3119.829154 477361.9728
 -15554.53379 3106.117719 477200.4608
 -21626.95418 3078.944741 476964.0094
 -27445.24041 3028.819649 476664.9309
 -32758.80113 2940.669529 476329.8067
 -37118.28722 2799.77086 476010.7828
 -39755.08795 2633.332599 475798.7703
 39755.08885 -2633.406871 475798.7698
 37118.28804 -2799.845936 476010.7823
 32758.80207 -2940.745496 476329.8061
 27445.24119 -3028.89698 476664.9303
 21626.95518 -3079.022862 476964.0088
 15554.5346 -3106.196925 477200.4603
 9364.022097 -3119.908831 477361.9723
 3125.485405 -3125.525268 477443.5398
 -3125.484804 -3125.52474 477443.5398
 -9364.021539 -3119.907419 477361.9723
 -15554.53399 -3106.194465 477200.4603
 -21626.95461 -3079.01982 476964.0089
 -27445.24062 -3028.892987 476664.9304
 -32758.80144 -2940.741274 476329.8062
 -37118.28748 -2799.841149 476010.7824
 -39755.08823 -2633.40203 475798.7699
 39613.97524 -7578.763414 475757.4662
 36912.26849 -8285.020121 475962.9336
 32595.37183 -8773.272358 476269.2964
 27338.1921 -9056.084243 476594.6725
 21562.5021 -9214.265467 476887.8559
 15517.93764 -9301.018078 477121.1125
 9345.529899 -9345.569891 477281.0416
 3119.868397 -9364.061259 477361.9718
 -3119.868551 -9364.060816 477361.9718
 -9345.530007 -9345.56839 477281.0416
 -15517.93777 -9301.015839 477121.1125
 -21562.50217 -9214.26222 476887.856
 -27338.1921 -9056.080605 476594.6726
 -32595.37186 -8773.267952 476269.2965
 -36912.26834 -8285.015574 475962.9337
 -39613.97507 -7578.75858 475757.4663
 39412.2854 -11219.82678 475702.2793
 36318.60996 -13509.40721 475888.9847
 32179.31645 -14479.05739 476158.2928
 27082.93263 -14984.34479 476459.7102
 21411.90414 -15268.91509 476739.1969
 15431.49252 -15431.53229 476964.9968
 9300.977719 -15517.97673 477121.112
 3106.155854 -15554.57314 477200.4593
 -3106.156683 -15554.57261 477200.4593
 -9300.978539 -15517.97541 477121.112
 -15431.49328 -15431.52995 476964.9968
 -21411.90483 -15268.91218 476739.197
 -27082.93329 -14984.34101 476459.7103
 -32179.3169 -14479.05334 476158.2929
 -36318.61037 -13509.40267 475888.9848
 -39412.2855 -11219.82207 475702.2794
 0 0 0
 34597.12909 -19205.9052 475821.4404
 31356.04666 -20025.09814 476012.2531
 26617.25076 -20701.52262 476271.8134
 21138.85869 -21138.89792 476527.1943
 15268.87517 -21411.94283 476739.1965
 9214.224613 -21562.54043 476887.855
 3078.981676 -21626.99268 476964.0074
 -3078.983125 -21626.99229 476964.0074
 -9214.226042 -21562.53903 476887.855
 -15268.8765 -21411.94076 476739.1965
 -21138.85998 -21138.89494 476527.1944
 -26617.25186 -20701.51923 476271.8135
 -31356.04772 -20025.09412 476012.2532
 -34597.12995 -19205.901 475821.4405
 0 0 -0
 0 0 0
 33820.85318 -22850.33535 475716.1794
 30400.25379 -24728.08076 475853.1474
 25918.90848 -25918.94694 476054.923
 20701.48336 -26617.28884 476271.813
 14984.30453 -27082.97048 476459.7093
 9056.043473 -27338.22926 476594.6712
 3028.855506 -27445.27786 476664.9285
 -3028.857486 -27445.27738 476664.9285
 -9056.045386 -27338.22808 476594.6712
 -14984.30641 -27082.9684 476459.7094
 -20701.48506 -26617.28622 476271.813
 -25918.9101 -25918.9436 476054.923
 -30400.25516 -24728.07709 475853.1475
 -33820.85437 -22850.3313 475716.1795
 0 0 -0
 0 0 0
 0 0 0
 28625.50558 -28625.54336 475744.7109
 24728.04225 -30400.29122 475853.147
 20025.0587 -31356.08388 476012.2523
 14479.01727 -32179.35314 476158.2915
 8773.231498 -32595.4081 476269.2947
 2940.704307 -32758.83759 476329.8039
 -2940.70668 -32758.83725 476329.8039
 -8773.233848 -32595.40692 476269.2947
 -14479.01948 -32179.35134 476158.2916
 -20025.06082 -31356.08133 476012.2524
 -24728.04416 -30400.28825 475853.1471
 -28625.50731 -28625.53992 475744.711
 0 0 -0
 0 0 -0
 0 0 0
 0 0 0
 0 0 0
 22850.29676 -33820.88978 475716.1787
 19205.86581 -34597.16543 475821.4394
 13509.36718 -36318.64578 475888.9831
 8284.979555 -36912.3037 475962.9316
 2799.804824 -37118.32276 476010.7798
 -2799.807486 -37118.32238 476010.7798
 -8284.98215 -36912.30272 475962.9316
 -13509.36969 -36318.64412 475888.9832
 -19205.86812 -34597.16314 475821.4394
 -22850.29894 -33820.88706 475716.1788
 0 0 -0
 0 0 -0
 0 0 -0
 0 0 0
 0 0 0
 0 0 0
 0 0 0
 0 0 0
 11219.78698 -39412.3203 475702.2774
 7578.723054 -39614.00973 475757.4639
 2633.36604 -39755.12284 475798.7672
 -2633.368837 -39755.12255 475798.7672
 -7578.725814 -39614.00885 475757.464
 -11219.78967 -39412.31902 475702.2774
 0 0 -0
 0 0 -0
 0 0 -0
 0 0 -0
 0 0 -0
 0 0 0
 0 0 0
 0 0 0
 0 0 0
 0 0 0
 8338.637307 29505.6191 476478.4957
 5682.896286 29669.29478 476507.407
 1986.261768 29785.79603 476529.8862
 -1986.257409 29785.79633 476529.8862
 -5682.891972 29669.29566 476507.407
 -8338.633078 29505.62038 476478.4957
 0 0 -0
 0 0 -0
 0 0 -0
 0 0 -0
 0 0 -0
 0 0 0
 0 0 0
 0 0 0
 17129.92928 25302.2692 476485.2904
 14451.37011 25971.57556 476538.043
 10166.06138 27373.83249 476570.2422
 6264.914611 27905.07559 476606.6815
 2125.112948 28097.36515 476631.8215
 -2125.108711 28097.3655 476631.8215
 -6264.910448 27905.07659 476606.6815
 -10166.05731 27373.83414 476570.2422
 -14451.36626 25971.57786 476538.043
 -17129.92558 25302.27192 476485.2904
 0 0 -0
 0 0 -0
 0 0 -0
 0 0 0
 0 0 0
 21448.96827 21448.92782 476499.4822
 18628.28608 22883.34093 476551.3728
 15182.98174 23746.3271 476631.3673
 11024.00883 24498.6376 476707.6245
 6704.257029 24902.55313 476767.0155
 2252.282255 25066.95183 476800.2165
 -2252.278282 25066.9522 476800.2165
 -6704.253092 24902.55429 476767.0155
 -11024.00504 24498.63941 476707.6245
 -15182.97808 23746.32964 476631.3673
 -18628.28264 22883.3439 476551.3728
 -21448.96503 21448.93126 476499.4822
 0 0 -0
 0 0 -0
 0 0 0
 25302.30896 17129.88858 476485.2898
 22883.38122 18628.24528 476551.3725
 19673.65401 19673.61303 476652.6698
 15825.45013 20339.62284 476768.0004
 11509.73834 20797.51286 476871.9542
 6977.541637 21058.32503 476948.3538
 2337.348344 21170.83008 476988.6834
 -2337.344737 21170.83053 476988.6834
 -6977.5381 21058.32623 476948.3538
 -11509.73487 20797.51492 476871.9542
 -15825.44684 20339.62546 476768.0004
 -19673.65087 19673.61637 476652.6697
 -22883.37832 18628.24894 476551.3725
 -25302.30629 17129.89262 476485.2898
 0 0 -0
 0 0 0
 25971.61518 14451.32893 476538.0421
 23746.36736 15182.94033 476631.3666
 20339.6636 15825.4088 476768
 16262.33718 16262.29576 476909.7875
 11798.15813 16542.85519 477031.4546
 7138.400301 16702.03506 477118.3884
 2388.271408 16771.79107 477163.3625
 -2388.268304 16771.79147 477163.3625
 -7138.397226 16702.03644 477118.3884
 -11798.15516 16542.85725 477031.4546
 -16262.33431 16262.29873 476909.7875
 -20339.66091 15825.41216 476768
 -23746.36481 15182.94434 476631.3666
 -25971.6128 14451.33311 476538.0421
 0 0 -0
 29505.65781 8338.596458 476478.494
 27373.87186 10166.01997 476570.2409
 24498.6775 11023.96732 476707.6234
 20797.5535 11509.69649 476871.9534
 16542.8963 11798.11646 477031.4542
 11968.68233 11968.64085 477163.8854
 7230.085001 12061.97995 477256.8552
 2417.048985 12102.46648 477304.4725
 -2417.046465 12102.467 477304.4725
 -7230.082526 12061.98127 477256.8552
 -11968.67991 11968.64319 477163.8854
 -16542.89399 11798.11933 477031.4542
 -20797.5513 11509.70027 476871.9534
 -24498.67547 11023.97132 476707.6234
 -27373.86997 10166.0245 476570.2409
 -29505.65622 8338.601129 476478.494
 29669.33312 5682.855102 476507.4051
 27905.11445 6264.873218 476606.6798
 24902.5927 6704.215173 476767.014
 21058.3652 6977.499825 476948.3526
 16702.07575 7138.358404 477118.3876
 12062.02102 7230.043355 477256.8548
 7278.791986 7278.750887 477353.0248
 2432.12655 7299.540032 477402.0033
 -2432.124708 7299.540469 477402.0033
 -7278.790152 7278.752381 477353.0248
 -12062.01925 7230.045559 477256.8548
 -16702.07403 7138.361651 477118.3876
 -21058.36357 6977.503401 476948.3526
 -24902.59117 6704.219575 476767.0141
 -27905.11304 6264.877713 476606.6798
 -29669.33183 5682.859909 476507.4051
 29785.83392 1986.220497 476529.884
 28097.40351 2125.071402 476631.8194
 25066.99084 2252.240619 476800.2146
 21170.86964 2337.306453 476988.6818
 16771.83117 2388.229646 477163.3613
 12102.50683 2417.007514 477304.4717
 7299.580574 2432.085432 477402.0029
 2438.496935 2438.456645 477451.5462
 -2438.495798 2438.457175 477451.5462
 -7299.579477 2432.086818 477402.0029
 -12102.50572 2417.009969 477304.4717
 -16771.83012 2388.232627 477163.3613
 -21170.86862 2337.310444 476988.6818
 -25066.98986 2252.244768 476800.2147
 -28097.4026 2125.076167 476631.8195
 -29785.83304 1986.225292 476529.884
 29785.83376 -1986.298585 476529.8837
 28097.40337 -2125.149984 476631.8191
 25066.99045 -2252.319763 476800.2143
 21170.86944 -2337.386243 476988.6814
 16771.83071 -2388.309746 477163.3609
 12102.50658 -2417.087688 477304.4713
 7299.580079 -2432.165316 477402.0025
 2438.496715 -2438.535883 477451.5458
 -2438.496336 -2438.535436 477451.5458
 -7299.579661 -2432.163801 477402.0025
 -12102.50622 -2417.085455 477304.4713
 -16771.83031 -2388.306445 477163.3609
 -21170.86904 -2337.382627 476988.6815
 -25066.99007 -2252.315288 476800.2143
 -28097.40292 -2125.145436 476631.8191
 -29785.83334 -1986.29372 476529.8837
 29669.33274 -5682.932791 476507.4042
 27905.11372 -6264.951305 476606.6788
 24902.59196 -6704.294075 476767.013
 21058.36413 -6977.579101 476948.3515
 16702.07485 -7138.438138 477118.3865
 12062.01984 -7230.123087 477256.8536
 7278.791016 -7278.830329 477353.0236
 2432.125313 -7299.618846 477402.0021
 -2432.125639 -7299.618308 477402.0021
 -7278.791362 -7278.828979 477353.0236
 -12062.02012 -7230.120668 477256.8536
 -16702.07511 -7138.435204 477118.3865
 -21058.36437 -6977.575189 476948.3515
 -24902.59207 -6704.289981 476767.013
 -27905.11384 -6264.946626 476606.6789
 -29669.33271 -5682.928052 476507.4043
 29505.6572 -8338.673438 476478.4927
 27373.87076 -10166.09762 476570.2393
 24498.67604 -11024.04534 476707.6217
 20797.55207 -11509.77521 476871.9516
 16542.89454 -11798.1953 477031.4523
 11968.68072 -11968.71978 477163.8835
 7230.083121 -12062.05855 477256.8532
 2417.04733 -12102.54446 477304.4705
 -2417.048351 -12102.54406 477304.4705
 -7230.08411 -12062.05709 477256.8532
 -11968.68166 -11968.71766 477163.8835
 -16542.89544 -11798.19217 477031.4524
 -20797.55282 -11509.77173 476871.9516
 -24498.67678 -11024.04111 476707.6218
 -27373.87125 -10166.09325 476570.2393
 -29505.65749 -8338.66874 476478.4928
 0 0 0
 25971.61357 -14451.406 476538.0399
 23746.36561 -15183.01774 476631.3643
 20339.66148 -15825.48631 476767.9975
 16262.33509 -16262.37363 476909.7849
 11798.15573 -16542.93288 477031.452
 7138.398044 -16702.11252 477118.3857
 2388.268924 -16771.86788 477163.3598
 -2388.270558 -16771.86736 477163.3598
 -7138.399623 -16702.11129 477118.3858
 -11798.15728 -16542.93066 477031.452
 -16262.33648 -16262.37089 476909.785
 -20339.66284 -15825.48274 476767.9976
 -23746.36673 -15183.01392 476631.3643
 -25971.61464 -14451.40176 476538.0399
 0 0 -0
 0 0 0
 25302.3074 -17129.96483 476485.2871
 22883.37908 -18628.32151 476551.3696
 19673.65166 -19673.68955 476652.6667
 15825.44742 -20339.69921 476767.9972
 11509.73565 -20797.58931 476871.9509
 6977.538697 -21058.40097 476948.3505
 2337.345548 -21170.9055 476988.68
 -2337.347682 -21170.90515 476988.68
 -6977.540826 -21058.39968 476948.3505
 -11509.73763 -20797.58739 476871.9509
 -15825.44936 -20339.69644 476767.9972
 -19673.65337 -19673.68639 476652.6668
 -22883.38067 -18628.31777 476551.3697
 -25302.30872 -17129.96084 476485.2872
 0 0 -0
 0 0 0
 0 0 0
 21448.96597 -21449.00332 476499.4789
 18628.2834 -22883.41616 476551.3693
 15182.97887 -23746.40231 476631.3637
 11024.00566 -24498.7124 476707.6208
 6704.253881 -24902.62771 476767.0117
 2252.278937 -25067.02571 476800.2126
 -2252.281492 -25067.02528 476800.2126
 -6704.256353 -24902.62664 476767.0117
 -11024.00809 -24498.71051 476707.6208
 -15182.98109 -23746.39989 476631.3637
 -18628.28552 -22883.41312 476551.3694
 -21448.96783 -21448.99993 476499.479
 0 0 -0
 0 0 -0
 0 0 0
 0 0 0
 0 0 0
 17129.92669 -25302.34363 476485.2866
 14451.36705 -25971.64957 476538.0391
 10166.0581 -27373.90619 476570.2381
 6264.911185 -27905.14865 476606.6773
 2125.109491 -28097.43767 476631.8172
 -2125.112305 -28097.43736 476631.8172
 -6264.913969 -27905.14761 476606.6773
 -10166.06076 -27373.9046 476570.2381
 -14451.36954 -25971.64725 476538.0391
 -17129.92901 -25302.34094 476485.2866
 0 0 -0
 0 0 -0
 0 0 -0
 0 0 0
 0 0 0
 0 0 0
 0 0 0
 0 0 0
 8338.634095 -29505.69185 476478.4913
 5682.892914 -29669.36696 476507.4026
 1986.258179 -29785.86753 476529.8817
 -1986.261143 -29785.86721 476529.8817
 -5682.895829 -29669.36611 476507.4026
 -8338.636954 -29505.69057 476478.4913
 0 0 -0
 0 0 -0
 0 0 -0
 0 0 -0
 0 0 -0
 0 0 0
 0 0 0
 0 0 0
 0 0 0
 0 0 0
 5110.593619 18137.9731 477091.9901
 3494.399142 18244.06124 477102.5201
 1224.544548 18320.28195 477110.8247
 -1224.540452 18320.28225 477110.8247
 -3494.395103 18244.06211 477102.5201
 -5110.589643 18137.97437 477091.9901
 0 0 -0
 0 0 -0
 0 0 -0
 0 0 -0
 0 0 -0
 0 0 0
 0 0 0
 0 0 0
 10540.68377 15551.64535 477094.2377
 8907.457728 15991.30836 477112.9914
 6267.922792 16885.19924 477124.1709
 3871.271365 17240.74814 477136.9208
 1315.644758 17373.74004 477145.9877
 -1315.640803 17373.74037 477145.9877
 -3871.267444 17240.74915 477136.9208
 -6267.919019 16885.20085 477124.1709
 -8907.454121 15991.31066 477112.9914
 -10540.68034 15551.64804 477094.2376
 0 0 -0
 0 0 -0
 0 0 -0
 0 0 0
 0 0 0
 13194.62289 13194.58308 477099.231
 11489.36915 14106.46845 477117.2531
 9397.676059 14688.62853 477145.4696
 6842.161631 15202.47767 477172.8626
 4170.845053 15488.60145 477194.4872
 1403.209302 15608.27369 477206.7519
 -1403.20559 15608.27408 477206.7519
 -4170.841431 15488.60256 477194.4872
 -6842.158058 15202.47952 477172.8626
 -9397.672716 14688.63097 477145.4696
 -11489.36592 14106.47147 477117.2531
 -13194.61993 13194.58647 477099.231
 0 0 -0
 0 0 -0
 0 0 0
 15551.68454 10540.64372 477094.2373
 14106.50824 11489.32888 477117.2529
 12185.53729 12185.49711 477152.908
 9847.429794 12653.19419 477194.7151
 7186.818084 12983.40484 477233.3309
 4367.009386 13176.73885 477262.1649
 1464.621998 13261.91399 477277.5375
 -1464.618686 13261.91438 477277.5375
 -4367.006087 13176.74011 477262.1649
 -7186.814945 12983.40678 477233.3309
 -9847.426713 12653.19692 477194.7151
 -12185.53447 12185.50029 477152.908
 -14106.50554 11489.3326 477117.2529
 -15551.68212 10540.64771 477094.2373
 0 0 -0
 0 0 0
 15991.34747 8907.417128 477112.9908
 14688.66805 9397.635469 477145.4692
 12653.23442 9847.388999 477194.7149
 10165.92499 10165.8844 477247.504
 7400.72891 10375.95543 477293.8718
 4487.397201 10497.87675 477327.4863
 1502.883663 10552.23765 477345.0146
 -1502.880828 10552.23812 477345.0146
 -4487.394435 10497.87801 477327.4863
 -7400.726178 10375.95761 477293.8718
 -10165.92244 10165.88715 477247.504
 -12653.23193 9847.392527 477194.7148
 -14688.66582 9397.639294 477145.4692
 -15991.34531 8907.421338 477112.9908
 0 0 -0
 18138.01136 5110.553355 477091.9891
 16885.23798 6267.882157 477124.1701
 15202.51707 6842.120626 477172.8619
 12983.44471 7186.777118 477233.3305
 10375.99586 7400.687889 477293.8716
 7531.078803 7531.038039 477345.1975
 4558.219562 7604.048894 477381.6842
 1525.211879 7636.254917 477400.495
 -1525.209648 7636.255337 477400.495
 -4558.21735 7604.05032 477381.6842
 -7531.076672 7531.040177 477345.1975
 -10375.99379 7400.69097 477293.8716
 -12983.44281 7186.780601 477233.3305
 -15202.51522 6842.124812 477172.8619
 -16885.23639 6267.886522 477124.1701
 -18138.00999 5110.558026 477091.9891
 18244.0991 3494.358616 477102.519
 17240.78651 3871.230507 477136.9197
 15488.64035 4170.804063 477194.4863
 13176.77837 4366.968156 477262.1642
 10497.91675 4487.356086 477327.4858
 7604.089149 4558.178731 477381.6839
 4596.791 4596.750508 477419.7427
 1537.220372 4613.51427 477439.2356
 -1537.218802 4613.514791 477439.2356
 -4596.789452 4596.751863 477419.7427
 -7604.087647 4558.181109 477381.6839
 -10497.91531 4487.359027 477327.4858
 -13176.77698 4366.972009 477262.1642
 -15488.63911 4170.808155 477194.4863
 -17240.78531 3871.235139 477136.9197
 -18244.09805 3494.363333 477102.519
 18320.31939 1224.503854 477110.8234
 17373.77788 1315.603945 477145.9864
 15608.31207 1403.168244 477206.7508
 13261.95293 1464.580904 477277.5366
 10552.27699 1502.842642 477345.0138
 7636.29463 1525.171033 477400.4945
 4613.553963 1537.180157 477439.2354
 1542.39367 1542.353971 477459.0176
 -1542.392817 1542.354417 477459.0176
 -4613.553119 1537.181649 477439.2354
 -7636.293801 1525.173264 477400.4945
 -10552.27619 1502.845886 477345.0138
 -13261.95218 1464.584523 477277.5366
 -15608.31132 1403.172653 477206.7508
 -17373.77721 1315.60848 477145.9864
 -18320.31874 1224.508681 477110.8234
 18320.31928 -1224.581041 477110.8232
 17373.77765 -1315.681476 477145.9862
 15608.31187 -1403.24638 477206.7506
 13261.95254 -1464.659497 477277.5363
 10552.27676 -1502.921609 477345.0136
 7636.294159 -1525.250018 477400.4943
 4613.553728 -1537.258853 477439.2351
 1542.393166 -1542.432032 477459.0173
 -1542.39304 -1542.431505 477459.0173
 -4613.553612 -1537.257477 477439.2351