# OOMMF OVF 2.0
#
# Segment count: 1
#
# Begin: Segment
# Begin: Header
#
# Title: Oxs_MinDriver::Magnetization
# Desc: Oxs vector field output
# Desc:  MIF source file: F:/Bogdan/UNIC/2022/Master_degree/Samples/Cylinder11_7.mif
# Desc:  Iteration: 2274, State id: 5192
# Desc:  Stage: 3, Stage iteration: 68
# Desc:  Stage simulation time: 0 s
# Desc:  Total simulation time: -2 s
# meshunit: m
# meshtype: rectangular
# xbase: -1.05e-08
# ybase: -1.05e-08
# zbase: -6.4999999999999995e-09
# xnodes: 22
# ynodes: 22
# znodes: 14
# xstepsize: 1.0000000000000001e-09
# ystepsize: 1.0000000000000001e-09
# zstepsize: 1.0000000000000001e-09
# xmin: -1.0999999999999999e-08
# ymin: -1.0999999999999999e-08
# zmin: -6.9999999999999998e-09
# xmax: 1.1000000000000003e-08
# ymax: 1.1000000000000003e-08
# zmax: 7.0000000000000015e-09
# valuedim: 3
# valuelabels: Magnetization_x Magnetization_y Magnetization_z
# valueunits: A/m A/m A/m
#
# End: Header
#
# Begin: Data Text
 0 0 0
 0 0 0
 0 0 0
 0 0 0
 0 0 0
 0 0 0
 0 0 0
 0 0 0
 4687.091209 23753.22723 476849.7527
 3112.341933 23835.64389 476858.5185
 1073.938587 23889.17453 476864.7872
 -1073.939464 23889.17449 476864.7872
 -3112.342803 23835.64377 476858.5185
 -4687.092073 23753.22706 476849.7527
 0 0 -0
 0 0 -0
 0 0 -0
 0 0 -0
 0 0 -0
 0 0 -0
 0 0 -0
 0 0 -0
 0 0 0
 0 0 0
 0 0 0
 0 0 0
 0 0 0
 11853.70856 21271.03824 476842.6405
 10366.0787 21500.01289 476867.0309
 8265.068037 21820.35232 476893.5229
 5663.562071 22406.77607 476904.3214
 3412.019395 22589.77862 476917.1116
 1144.391698 22655.86434 476924.809
 -1144.392554 22655.86429 476924.809
 -3412.020249 22589.77848 476917.1116
 -5663.562905 22406.77585 476904.3214
 -8265.068846 21820.35199 476893.5229
 -10366.07948 21500.01248 476867.0309
 -11853.70933 21271.03778 476842.6405
 0 0 -0
 0 0 -0
 0 0 -0
 0 0 -0
 0 0 -0
 0 0 0
 0 0 0
 0 0 0
 0 0 0
 14352.12383 19248.21884 476859.9311
 12621.51476 19861.82096 476883.7141
 10653.1089 20167.09624 476918.9352
 8423.427424 20412.91605 476953.069
 5994.585555 20664.50942 476978.9453
 3596.015086 20791.01434 476997.5615
 1199.744035 20842.19564 477007.3739
 -1199.744858 20842.19559 477007.3739
 -3596.015898 20791.01419 476997.5615
 -5994.586359 20664.50918 476978.9453
 -8423.428201 20412.9157 476953.069
 -10653.10966 20167.0958 476918.9352
 -12621.51549 19861.82046 476883.7141
 -14352.12453 19248.21828 476859.9311
 0 0 -0
 0 0 -0
 0 0 -0
 0 0 -0
 0 0 0
 0 0 0
 0 0 0
 16869.13478 16869.10697 476867.6303
 15137.05176 17601.02096 476899.3028
 13113.97964 18026.59643 476943.3265
 10919.67435 18278.04351 476989.0409
 8584.898382 18454.13615 477029.9945
 6151.85941 18591.14787 477062.255
 3695.914039 18670.42044 477084.5071
 1232.734775 18704.88213 477095.8803
 -1232.735543 18704.88208 477095.8803
 -3695.914805 18670.42028 477084.5071
 -6151.860159 18591.1476 477062.255
 -8584.899115 18454.13578 477029.9945
 -10919.67506 18278.04305 476989.0409
 -13113.98032 18026.59589 476943.3265
 -15137.05241 17601.02035 476899.3028
 -16869.13539 16869.10631 476867.6303
 0 0 -0
 0 0 -0
 0 0 -0
 0 0 0
 0 0 0
 19248.24668 14352.0961 476859.9308
 17601.04886 15137.02392 476899.3027
 15619.50307 15619.4751 476952.7591
 13432.6381 15917.25078 477009.5142
 11115.79917 16101.85048 477062.9316
 8708.318395 16223.26268 477108.8369
 6242.455106 16305.88441 477144.6544
 3751.648635 16354.42089 477169.0784
 1251.376199 16376.06576 477181.4433
 -1251.376902 16376.0657 477181.4433
 -3751.64933 16354.42072 477169.0784
 -6242.45579 16305.88412 477144.6544
 -8708.319066 16223.26229 477108.8369
 -11115.79981 16101.84999 477062.9316
 -13432.63872 15917.25021 477009.5142
 -15619.50366 15619.47445 476952.7591
 -17601.04941 15137.02321 476899.3027
 -19248.24719 14352.09535 476859.9308
 0 0 -0
 0 0 -0
 0 0 0
 21271.06603 11853.68094 476842.64
 19861.84885 12621.487 476883.7136
 18026.62443 13113.95173 476943.3262
 15917.2789 13432.61003 477009.5141
 13635.64989 13635.62165 477074.4283
 11247.13115 13763.04204 477133.0548
 8791.810467 13843.52074 477182.2841
 6297.07996 13894.08851 477220.2556
 3783.286947 13922.91406 477245.9644
 1261.762173 13935.6753 477258.9195
 -1261.762791 13935.67524 477258.9195
 -3783.28756 13922.91388 477245.9644
 -6297.080568 13894.08821 477220.2556
 -8791.811049 13843.52033 477182.2841
 -11247.13173 13763.04154 477133.0548
 -13635.65043 13635.62105 477074.4283
 -15917.27942 13432.60935 477009.5141
 -18026.62491 13113.95099 476943.3262
 -19861.84931 12621.48621 476883.7136
 -21271.06645 11853.68011 476842.64
 0 0 -0
 0 0 0
 21500.04074 10366.05097 476867.0302
 20167.12421 10653.08108 476918.9347
 18278.07162 10919.64636 476989.0405
 16101.87874 11115.77102 477062.9313
 13763.07043 11247.10282 477133.0547
 11330.30105 11330.27252 477195.055
 8844.02051 11381.13571 477246.3979
 6329.071483 11411.12351 477285.6591
 3800.772679 11427.32744 477312.1008
 1267.337685 11434.25901 477325.3847
 -1267.338206 11434.25894 477325.3847
 -3800.773199 11427.32725 477312.1008
 -6329.071985 11411.1232 477285.6591
 -8844.021019 11381.13529 477246.3979
 -11330.30151 11330.27199 477195.055
 -13763.07091 11247.1022 477133.0547
 -16101.87917 11115.77031 477062.9313
 -18278.07204 10919.6456 476989.0405
 -20167.12459 10653.08026 476918.9347
 -21500.04111 10366.05013 476867.0302
 0 0 -0
 0 0 0
 21820.38029 8265.040245 476893.5221
 20412.94414 8423.399521 476953.0683
 18454.1644 8584.870333 477029.9939
 16223.29107 8708.290154 477108.8364
 13843.5493 8791.782037 477182.2838
 11381.1644 8843.991886 477246.3978
 8874.655143 8874.626327 477299.0182
 6346.63866 8891.45622 477339.0132
 3809.758111 8899.841225 477365.8449
 1270.090731 8903.186197 477379.2952
 -1270.091145 8903.186137 477379.2952
 -3809.758518 8899.841026 477365.8449
 -6346.639072 8891.455904 477339.0132
 -8874.655524 8874.625887 477299.0182
 -11381.1648 8843.991344 477246.3978
 -13843.54965 8791.78139 477182.2838
 -16223.29144 8708.289434 477108.8364
 -18454.16472 8584.869535 477029.9939
 -20412.94445 8423.39868 476953.0683
 -21820.38058 8265.039373 476893.5221
 0 0 -0
 23753.25524 4687.063601 476849.7516
 22406.80415 5663.534299 476904.3204
 20664.53764 5994.557636 476978.9445
 18591.17624 6151.831301 477062.2543
 16305.91297 6242.426816 477144.6538
 13894.11722 6297.051456 477220.2552
 11411.15238 6329.042781 477285.6588
 8891.485212 6346.609752 477339.013
 6355.44304 6355.413952 477379.3967
 3813.837957 6359.289528 477406.4153
 1271.258759 6360.640891 477419.9383
 -1271.259054 6360.640816 477419.9383
 -3813.838254 6359.289336 477406.4153
 -6355.443321 6355.413621 477379.3967
 -8891.485508 6346.609309 477339.013
 -11411.15264 6329.042217 477285.6588
 -13894.1175 6297.050805 477220.2552
 -16305.9132 6242.426066 477144.6538
 -18591.17648 6151.830494 477062.2543
 -20664.53785 5994.556768 476978.9445
 -22406.80435 5663.533398 476904.3204
 -23753.25538 4687.062671 476849.7516
 23835.67194 3112.314282 476858.5173
 22589.80678 3411.991627 476917.1104
 20791.04265 3595.98714 476997.5605
 18670.44894 3695.885922 477084.5062
 16354.44956 3751.620296 477169.0776
 13922.94292 3783.258412 477245.9637
 11427.35645 3800.743918 477312.1004
 8899.870382 3809.729155 477365.8446
 6359.318791 3813.808795 477406.4151
 3815.360877 3815.331549 477433.5111
 1271.637369 3815.7448 477447.0592
 -1271.637542 3815.744742 477447.0592
 -3815.361042 3815.331339 477433.5111
 -6359.318968 3813.808469 477406.4151
 -8899.870531 3809.728695 477365.8446
 -11427.35663 3800.743357 477312.1004
 -13922.94306 3783.257736 477245.9637
 -16354.44972 3751.619549 477169.0776
 -18670.44906 3695.88509 477084.5062
 -20791.04278 3595.986264 476997.5605
 -22589.80688 3411.990709 476917.1105
 -23835.67203 3112.313344 476858.5173
 23889.20264 1073.91092 476864.7859
 22655.89257 1144.363915 476924.8078
 20842.22406 1199.716107 477007.3728
 18704.91073 1232.706635 477095.8793
 16376.09456 1251.347871 477181.4424
 13935.70428 1261.733609 477258.9187
 11434.28817 1267.308917 477325.3841
 8903.215489 1270.06174 477379.2947
 6360.670301 1271.229578 477419.9379
 3815.774288 1271.607999 477447.059
 1271.710509 1271.680988 477460.6129
 -1271.71055 1271.68091 477460.6129
 -3815.774338 1271.607802 477447.059
 -6360.670331 1271.229238 477419.9379
 -8903.215544 1270.061287 477379.2947
 -11434.28819 1267.30834 477325.3841
 -13935.70433 1261.732942 477258.9187
 -16376.09458 1251.347104 477181.4424
 -18704.91077 1232.705808 477095.8793
 -20842.22407 1199.715216 477007.3728
 -22655.8926 1144.362992 476924.8078
 -23889.20265 1073.909977 476864.7859
 23889.20267 -1073.967128 476864.7857
 22655.89261 -1144.42031 476924.8076
 20842.22407 -1199.772788 477007.3726
 18704.91077 -1232.763643 477095.8792
 16376.09458 -1251.405233 477181.4422
 13935.70434 -1261.791323 477258.9185
 11434.28819 -1267.366973 477325.3839
 8903.215557 -1270.120116 477379.2945
 6360.670342 -1271.288234 477419.9378
 3815.774358 -1271.666899 477447.0589
 1271.710567 -1271.740076 477460.6127
 -1271.710484 -1271.740138 477460.6127
 -3815.774261 -1271.667108 477447.0589
 -6360.670271 -1271.288564 477419.9378
 -8903.215457 -1270.120578 477379.2945
 -11434.28813 -1267.367541 477325.3839
 -13935.70424 -1261.792001 477258.9185
 -16376.09452 -1251.405989 477181.4422
 -18704.91068 -1232.764479 477095.8792
 -20842.22402 -1199.773672 477007.3726
 -22655.89253 -1144.421237 476924.8076
 -23889.20261 -1073.968071 476864.7857
 23835.67203 -3112.370428 476858.5169
 22589.80686 -3412.047982 476917.11
 20791.04275 -3596.043773 476997.5601
 18670.44903 -3695.942886 477084.5058
 16354.44969 -3751.677599 477169.0771
 13922.94303 -3783.316064 477245.9633
 11427.35661 -3800.801908 477312.0999
 8899.870518 -3809.787453 477365.8441
 6359.318971 -3813.867382 477406.4147
 3815.361045 -3815.390364 477433.5107
 1271.637562 -3815.803814 477447.0587
 -1271.637342 -3815.803885 477447.0587
 -3815.360843 -3815.390563 477433.5107
 -6359.318744 -3813.867717 477406.4147
 -8899.870329 -3809.787905 477365.8441
 -11427.35639 -3800.802478 477312.0999
 -13922.94286 -3783.316731 477245.9633
 -16354.44949 -3751.678355 477169.0771
 -18670.44887 -3695.94371 477084.5058
 -20791.04257 -3596.044655 476997.5601
 -22589.80672 -3412.048897 476917.11
 -23835.67189 -3112.371367 476858.5169
 23753.25537 -4687.119648 476849.751
 22406.80429 -5663.590586 476904.3197
 20664.53778 -5994.614201 476978.9437
 18591.17642 -6151.888167 477062.2535
 16305.91314 -6242.484013 477144.653
 13894.11744 -6297.108983 477220.2544
 11411.15259 -6329.100635 477285.658
 8891.485481 -6346.667915 477339.0122
 6355.443299 -6355.47238 477379.3959
 3813.838258 -6359.348198 477406.4145
 1271.259064 -6360.699739 477419.9375
 -1271.25873 -6360.699803 477419.9375
 -3813.837909 -6359.3484 477406.4145
 -6355.442983 -6355.472705 477379.3959
 -8891.485139 -6346.668364 477339.0122
 -11411.15229 -6329.101194 477285.658
 -13894.11712 -6297.109641 477220.2544
 -16305.91286 -6242.484757 477144.653
 -18591.17613 -6151.888979 477062.2535
 -20664.53754 -5994.615066 476978.9437
 -22406.80405 -5663.591489 476904.3197
 -23753.25519 -4687.120578 476849.751
 0 0 0
 21820.38049 -8265.096538 476893.5211
 20412.94437 -8423.455993 476953.0673
 18454.16463 -8584.927065 477029.9929
 16223.29135 -8708.347189 477108.8354
 13843.54957 -8791.83939 477182.2828
 11381.16473 -8844.049544 477246.3967
 8874.655474 -8874.684281 477299.0171
 6346.639045 -8891.514437 477339.0121
 3809.758503 -8899.899665 477365.8438
 1270.091159 -8903.244819 477379.2941
 -1270.090698 -8903.244889 477379.2941
 -3809.75806 -8899.899855 477365.8438
 -6346.638585 -8891.514759 477339.0121
 -8874.655051 -8874.684717 477299.0171
 -11381.1643 -8844.05009 477246.3967
 -13843.54918 -8791.840035 477182.2828
 -16223.29095 -8708.347912 477108.8354
 -18454.16428 -8584.92786 477029.9929
 -20412.94401 -8423.456835 476953.0673
 -21820.38017 -8265.09741 476893.5211
 0 0 -0
 0 0 0
 21500.04107 -10366.10713 476867.029
 20167.12451 -10653.13739 476918.9334
 18278.07194 -10919.70292 476989.0392
 16101.87906 -11115.82785 477062.93
 13763.07081 -11247.15994 477133.0533
 11330.30143 -11330.32994 477195.0536
 8844.020954 -11381.19339 477246.3966
 6329.071941 -11411.18145 477285.6577
 3800.773184 -11427.38559 477312.0994
 1267.338214 -11434.31734 477325.3833
 -1267.337651 -11434.31739 477325.3833
 -3800.772617 -11427.38578 477312.0994
 -6329.071397 -11411.18176 477285.6577
 -8844.020404 -11381.19382 477246.3966
 -11330.30092 -11330.33047 477195.0536
 -13763.07029 -11247.16056 477133.0533
 -16101.87859 -11115.82855 477062.93
 -18278.07147 -10919.70368 476989.0392
 -20167.12409 -10653.13821 476918.9334
 -21500.04066 -10366.10798 476867.029
 0 0 -0
 0 0 0
 21271.06643 -11853.73691 476842.6386
 19861.84922 -12621.54314 476883.7121
 18026.62479 -13114.00808 476943.3246
 15917.2793 -13432.66663 477009.5125
 13635.65031 -13635.67852 477074.4267
 11247.13163 -13763.09917 477133.0532
 8791.810971 -13843.57813 477182.2825
 6297.080516 -13894.14612 477220.2539
 3783.287534 -13922.97188 477245.9627
 1261.762797 -13935.73328 477258.9178
 -1261.762134 -13935.73335 477258.9178
 -3783.286881 -13922.97206 477245.9627
 -6297.079865 -13894.14642 477220.2539
 -8791.810345 -13843.57853 477182.2825
 -11247.13101 -13763.09968 477133.0532
 -13635.64972 -13635.67912 477074.4267
 -15917.27872 -13432.66731 477009.5125
 -18026.62426 -13114.00882 476943.3246
 -19861.84872 -12621.54393 476883.7121
 -21271.06598 -11853.73774 476842.6386
 0 0 -0
 0 0 0
 0 0 0
 19248.24707 -14352.15212 476859.9291
 17601.04926 -15137.08009 476899.3009
 15619.50351 -15619.53147 476952.7572
 13432.63859 -15917.30738 477009.5123
 11115.7997 -16101.90731 477062.9297
 8708.318983 -16223.31972 477108.8349
 6242.455728 -16305.94168 477144.6524
 3751.649301 -16354.47833 477169.0764
 1251.376906 -16376.12337 477181.4413
 -1251.376162 -16376.12341 477181.4413
 -3751.648561 -16354.47851 477169.0764
 -6242.455003 -16305.94196 477144.6524
 -8708.318268 -16223.32011 477108.8349
 -11115.79902 -16101.90779 477062.9297
 -13432.63792 -15917.30795 477009.5123
 -15619.50288 -15619.53211 476952.7572
 -17601.04866 -15137.08079 476899.3009
 -19248.24652 -14352.15287 476859.9291
 0 0 -0
 0 0 -0
 0 0 0
 0 0 0
 0 0 0
 16869.13524 -16869.16302 476867.6283
 15137.05226 -17601.07714 476899.3007
 13113.98019 -18026.65277 476943.3243
 10919.67496 -18278.10002 476989.0387
 8584.899024 -18454.19287 477029.9923
 6151.860098 -18591.20476 477062.2528
 3695.914769 -18670.47752 477084.5049
 1232.735547 -18704.93934 477095.8781
 -1232.734733 -18704.9394 477095.8781
 -3695.913965 -18670.47767 477084.5049
 -6151.859301 -18591.20503 477062.2528
 -8584.898254 -18454.19323 477029.9923
 -10919.6742 -18278.10049 476989.0387
 -13113.97947 -18026.6533 476943.3243
 -15137.05157 -17601.07774 476899.3007
 -16869.13459 -16869.16369 476867.6283
 0 0 -0
 0 0 -0
 0 0 -0
 0 0 0
 0 0 0
 0 0 0
 0 0 0
 14352.12441 -19248.27488 476859.9288
 12621.5154 -19861.87708 476883.7117
 10653.10958 -20167.15247 476918.9329
 8423.428122 -20412.97243 476953.0666
 5994.586288 -20664.56598 476978.9429
 3596.015868 -20791.07103 476997.559
 1199.744861 -20842.25247 477007.3715
 -1199.743998 -20842.25251 477007.3715
 -3596.015007 -20791.07119 476997.559
 -5994.585448 -20664.56622 476978.9429
 -8423.427297 -20412.97278 476953.0666
 -10653.10878 -20167.1529 476918.9329
 -12621.51463 -19861.87758 476883.7117
 -14352.12367 -19248.27544 476859.9288
 0 0 -0
 0 0 -0
 0 0 -0
 0 0 -0
 0 0 0
 0 0 0
 0 0 0
 0 0 0
 0 0 0
 11853.70931 -21271.0942 476842.638
 10366.07943 -21500.0689 476867.0284
 8265.068763 -21820.40844 476893.5203
 5663.562846 -22406.83234 476904.3187
 3412.020221 -22589.835 476917.1089
 1144.392562 -22655.92082 476924.8064
 -1144.391661 -22655.92087 476924.8064
 -3412.019331 -22589.83513 476917.1089
 -5663.561964 -22406.83257 476904.3187
 -8265.067915 -21820.40877 476893.5203
 -10366.07861 -21500.06931 476867.0284
 -11853.7085 -21271.09466 476842.638
 0 0 -0
 0 0 -0
 0 0 -0
 0 0 -0
 0 0 -0
 0 0 0
 0 0 0
 0 0 0
 0 0 0
 0 0 0
 0 0 0
 0 0 0
 0 0 0
 4687.092059 -23753.28336 476849.7499
 3112.342803 -23835.70005 476858.5157
 1073.939477 -23889.23076 476864.7844
 -1073.93856 -23889.2308 476864.7844
 -3112.34189 -23835.70017 476858.5157
 -4687.091155 -23753.28353 476849.7499
 0 0 -0
 0 0 -0
 0 0 -0
 0 0 -0
 0 0 -0
 0 0 -0
 0 0 -0
 0 0 -0
 0 0 0
 0 0 0
 0 0 0
 0 0 0
 0 0 0
 0 0 0
 0 0 0
 0 0 0
 4213.080502 21768.37314 476948.9063
 2840.027388 21854.03406 476955.1412
 986.4056271 21909.86037 476960.0154
 -986.4065009 21909.86033 476960.0154
 -2840.028261 21854.03395 476955.1412
 -4213.081363 21768.37297 476948.9063
 0 0 -0
 0 0 -0
 0 0 -0
 0 0 -0
 0 0 -0
 0 0 -0
 0 0 -0
 0 0 -0
 0 0 0
 0 0 0
 0 0 0
 0 0 0
 0 0 0
 10861.68837 19466.60338 476943.3366
 9572.703503 19705.15995 476961.1528
 7628.303896 20064.90261 476981.2155
 5199.857845 20685.11821 476987.3779
 3145.374176 20902.95569 476995.8536
 1058.095133 20981.20374 477001.6151
 -1058.095993 20981.2037 477001.6151
 -3145.375019 20902.95555 476995.8536
 -5199.858687 20685.11799 476987.3779
 -7628.3047 20064.90228 476981.2155
 -9572.704288 19705.15955 476961.1528
 -10861.68913 19466.60292 476943.3367
 0 0 -0
 0 0 -0
 0 0 -0
 0 0 -0
 0 0 -0
 0 0 0
 0 0 0
 0 0 0
 0 0 0
 13127.64674 17668.00447 476956.3689
 11626.16331 18308.80665 476971.1639
 9878.416885 18657.41759 476997.0534
 7829.09735 18940.47313 477023.9355
 5571.915726 19225.68769 477044.2306
 3346.547449 19377.96737 477058.8709
 1117.657902 19440.49041 477066.7558
 -1117.65872 19440.49035 477066.7558
 -3346.54827 19377.96722 477058.8709
 -5571.91652 19225.68744 477044.2306
 -7829.098135 18940.47278 477023.9355
 -9878.417635 18657.41716 476997.0534
 -11626.16405 18308.80615 476971.1639
 -13127.64744 17668.00391 476956.3689
 0 0 -0
 0 0 -0
 0 0 -0
 0 0 -0
 0 0 0
 0 0 0
 0 0 0
 15466.06358 15466.03585 476962.7595
 13953.42382 16243.94237 476983.5507
 12165.36953 16730.8532 477015.6744
 10177.26334 17025.71313 477051.7998
 8021.485987 17231.78928 477085.5191
 5754.732216 17391.33998 477112.456
 3460.077033 17486.46121 477131.138
 1154.618646 17528.62244 477140.7398
 -1154.619418 17528.62238 477140.7398
 -3460.077792 17486.46105 477131.138
 -5754.73297 17391.33971 477112.456
 -8021.486717 17231.78891 477085.5191
 -10177.26405 17025.71267 477051.7998
 -12165.37021 16730.85267 477015.6744
 -13953.42447 16243.94176 476983.5507
 -15466.06419 15466.03519 476962.7595
 0 0 -0
 0 0 -0
 0 0 -0
 0 0 0
 0 0 0
 17668.03221 13127.6191 476956.3686
 16243.97017 13953.39607 476983.5505
 14500.74002 14500.71213 477023.4053
 12529.14367 14848.32371 477068.5686
 10402.49583 15066.27837 477112.8448
 8166.377763 15209.87869 477151.801
 5860.92357 15307.7917 477182.5567
 3524.774498 15366.3867 477203.6477
 1176.093141 15392.99802 477214.3582
 -1176.093841 15392.99797 477214.3582
 -3524.775194 15366.38652 477203.6477
 -5860.924258 15307.79142 477182.5567
 -8166.378423 15209.87829 477151.801
 -10402.49649 15066.27789 477112.8448
 -12529.14429 14848.32314 477068.5686
 -14500.74061 14500.71149 477023.4053
 -16243.97072 13953.39537 476983.5505
 -17668.03272 13127.61835 476956.3686
 0 0 -0
 0 0 -0
 0 0 0
 19466.63108 10861.66084 476943.3361
 18308.83445 11626.13566 476971.1635
 16730.88111 12165.3417 477015.6741
 14848.35174 12529.1157 477068.5685
 12765.88007 12765.85194 477122.5593
 10555.91219 12916.502 477172.5139
 8264.979644 13012.67635 477215.079
 5925.758286 13073.80909 477248.1872
 3562.302182 13109.33677 477270.7058
 1188.388212 13125.3765 477282.0796
 -1188.38883 13125.37643 477282.0796
 -3562.3028 13109.3366 477270.7058
 -5925.758877 13073.80878 477248.1872
 -8264.980254 13012.67595 477215.079
 -10555.91274 12916.50148 477172.5139
 -12765.88064 12765.85134 477122.5593
 -14848.35224 12529.11503 477068.5685
 -16730.88161 12165.34097 477015.6741
 -18308.83489 11626.13487 476971.1635
 -19466.6315 10861.66001 476943.3361
 0 0 -0
 0 0 0
 19705.18772 9572.67588 476961.1522
 18657.44547 9878.389138 476997.0529
 17025.74116 10177.23546 477051.7994
 15066.30652 10402.46776 477112.8445
 12916.53032 10555.88394 477172.5137
 10654.78706 10654.75864 477226.1759
 8327.822194 10716.48181 477271.0715
 5964.734845 10753.78934 477305.6141
 3583.778827 10774.57576 477328.9603
 1195.261706 10783.72852 477340.7104
 -1195.262229 10783.72846 477340.7104
 -3583.779338 10774.57556 477328.9603
 -5964.735373 10753.78904 477305.6141
 -8327.82266 10716.48138 477271.0715
 -10654.78758 10654.75812 477226.1759
 -12916.53075 10555.88331 477172.5137
 -15066.307 10402.46707 477112.8445
 -17025.74155 10177.23469 477051.7994
 -18657.44587 9878.388326 476997.0529
 -19705.18808 9572.675035 476961.1522
 0 0 -0
 0 0 0
 20064.93049 7628.276186 476981.2148
 18940.50113 7829.069556 477023.9348
 17231.81741 8021.458008 477085.5185
 15209.90703 8166.349623 477151.8005
 13012.7048 8264.9513 477215.0788
 10716.51044 8327.793649 477271.0714
 8365.858582 8365.829854 477317.3961
 5987.13386 8387.667002 477352.7758
 3595.509802 8399.175927 477376.5782
 1198.906389 8404.02887 477388.5275
 -1198.906801 8404.028791 477388.5275
 -3595.51022 8399.175746 477376.5782
 -5987.134244 8387.666673 477352.7758
 -8365.859013 8365.829427 477317.3961
 -10716.51077 8327.793095 477271.0714
 -13012.70522 8264.95067 477215.0788
 -15209.90733 8166.348886 477151.8005
 -17231.81777 8021.457228 477085.5185
 -18940.50142 7829.06871 477023.9348
 -20064.93079 7628.275318 476981.2148
 0 0 -0
 21768.40107 4213.052986 476948.9052
 20685.14621 5199.830177 476987.377
 19225.7158 5571.887878 477044.2298
 17391.36829 5754.704221 477112.4553
 15307.82014 5860.895347 477182.5561
 13073.83774 5925.72988 477248.1868
 10753.81811 5964.706217 477305.6138
 8387.695915 5987.105047 477352.7757
 5999.20588 5999.176859 477388.616
 3601.443071 6005.08921 477412.6515
 1200.676416 6007.422236 477424.6962
 -1200.676715 6007.422189 477424.6962
 -3601.443357 6005.088995 477412.6515
 -5999.20619 5999.176546 477388.616
 -8387.696161 5987.10459 477352.7757
 -10753.81843 5964.705671 477305.6138
 -13073.83795 5925.729208 477248.1868
 -15307.82043 5860.894623 477182.5561
 -17391.36848 5754.703397 477112.4553
 -19225.71604 5571.887022 477044.2298
 -20685.14639 5199.829275 476987.377
 -21768.40122 4213.052058 476948.9052
 21854.06203 2839.999836 476955.1401
 20902.98376 3145.346485 476995.8526
 19377.99561 3346.51962 477058.8699
 17486.4896 3460.048976 477131.1372
 15366.41531 3524.746274 477203.647
 13109.36552 3562.273708 477270.7052
 10774.60471 3583.750169 477328.9599
 8399.204996 3595.480905 477376.5779
 6005.118385 3601.414011 477412.6513
 3604.121075 3604.09181 477436.7939
 1201.429349 3605.061082 477448.8783
 -1201.429518 3605.060991 477448.8783
 -3604.121258 3604.091629 477436.7939
 -6005.11853 3601.413664 477412.6513
 -8399.205196 3595.480464 477376.5779
 -10774.60482 3583.749589 477328.9599
 -13109.36572 3562.273058 477270.7052
 -15366.41541 3524.745503 477203.647
 -17486.48977 3460.048166 477131.1372
 -19377.9957 3346.518735 477058.8699
 -20902.98388 3145.345572 476995.8526
 -21854.06211 2839.9989 476955.1401
 21909.88839 986.3780438 476960.0142
 20981.2319 1058.067463 477001.6139
 19440.51871 1117.630035 477066.7547
 17528.65097 1154.59063 477140.7388
 15393.02671 1176.064865 477214.3574
 13125.40541 1188.35976 477282.0789
 10783.75757 1195.232998 477340.7099
 8404.058096 1198.877498 477388.5271
 6007.451562 1200.647298 477424.6959
 3605.090485 1201.400073 477448.8782
 1201.68313 1201.653676 477460.9757
 -1201.68318 1201.65363 477460.9757
 -3605.09051 1201.399851 477448.8782
 -6007.451635 1200.646979 477424.6959
 -8404.058099 1198.877028 477388.5271
 -10783.75765 1195.23244 477340.7099
 -13125.4054 1188.359074 477282.0789
 -15393.02679 1176.06412 477214.3574
 -17528.65096 1154.589788 477140.7388
 -19440.51877 1117.629157 477066.7547
 -20981.2319 1058.066538 477001.6139
 -21909.88842 986.3771033 476960.0142
 21909.88843 -986.4340682 476960.0141
 20981.2319 -1058.123678 477001.6138
 19440.51877 -1117.686527 477066.7546
 17528.65096 -1154.647466 477140.7387
 15393.02679 -1176.12205 477214.3572
 13125.40541 -1188.417307 477282.0787
 10783.75766 -1195.290892 477340.7097
 8404.058103 -1198.935707 477388.5269
 6007.451654 -1200.705803 477424.6958
 3605.090519 -1201.458809 477448.878
 1201.683205 -1201.712614 477460.9755
 -1201.683109 -1201.712699 477460.9755
 -3605.090461 -1201.458998 477448.878
 -6007.451532 -1200.706148 477424.6958
 -8404.058064 -1198.936154 477388.5269
 -10783.75754 -1195.291473 477340.7097
 -13125.40537 -1188.41797 477282.0787
 -15393.02667 -1176.122818 477214.3572
 -17528.65093 -1154.648289 477140.7387
 -19440.51866 -1117.687418 477066.7546
 -20981.23187 -1058.124597 477001.6138
 -21909.88836 -986.4350107 476960.0141
 21854.06211 -2840.055804 476955.1398
 20902.98386 -3145.402641 476995.8522
 19377.99566 -3346.576081 477058.8695
 17486.48974 -3460.10575 477131.1367
 15366.41538 -3524.803411 477203.6466
 13109.3657 -3562.331188 477270.7048
 10774.60479 -3583.807989 477328.9594
 8399.205193 -3595.539055 477376.5775
 6005.118514 -3601.472419 477412.6509
 3604.121278 -3604.150486 477436.7934
 1201.429525 -3605.119926 477448.8779
 -1201.429324 -3605.119982 477448.8779
 -3604.121032 -3604.150697 477436.7934
 -6005.118349 -3601.472743 477412.6509
 -8399.204941 -3595.539516 477376.5775
 -10774.60464 -3583.80855 477328.9594
 -13109.36546 -3562.331859 477270.7048
 -15366.41524 -3524.804161 477203.6466
 -17486.48952 -3460.106576 477131.1367
 -19377.99554 -3346.576956 477058.8695
 -20902.98368 -3145.403559 476995.8522
 -21854.06199 -2840.056738 476955.1398
 21768.40121 -4213.108849 476948.9047
 20685.14632 -5199.886288 476987.3764
 19225.71598 -5571.944252 477044.2292
 17391.36842 -5754.760914 477112.4546
 15307.82037 -5860.952362 477182.5554
 13073.8379 -5925.787244 477248.1861
 10753.81839 -5964.763903 477305.6131
 8387.696123 -5987.163036 477352.7749
 5999.206187 -5999.235144 477388.6153
 3601.443338 -6005.147703 477412.6508
 1200.676737 -6007.480936 477424.6955
 -1200.676385 -6007.481013 477424.6955
 -3601.443037 -6005.147895 477412.6508
 -5999.205811 -5999.235476 477388.6153
 -8387.695846 -5987.163478 477352.7749
 -10753.81803 -5964.764464 477305.6131
 -13073.83764 -5925.7879 477248.1861
 -15307.82004 -5860.953101 477182.5554
 -17391.36818 -5754.761726 477112.4546
 -19225.71568 -5571.945116 477044.2292
 -20685.14612 -5199.887187 476987.3764
 -21768.40102 -4213.109777 476948.9047
 0 0 0
 20064.93071 -7628.332304 476981.2139
 18940.50134 -7829.125843 477023.9339
 17231.81769 -8021.514563 477085.5176
 15209.90725 -8166.406484 477151.7996
 13012.70513 -8265.008468 477215.0778
 10716.51071 -8327.85115 477271.0703
 8365.858965 -8365.887638 477317.3951
 5987.134203 -8387.72505 477352.7748
 3595.510221 -8399.23421 477376.5772
 1198.906804 -8404.087328 477388.5265
 -1198.90636 -8404.08738 477388.5265
 -3595.509741 -8399.234414 477376.5772
 -5987.133794 -8387.725362 477352.7748
 -8365.858492 -8365.88808 477317.3951
 -10716.51033 -8327.851692 477271.0703
 -13012.70469 -8265.009108 477215.0778
 -15209.9069 -8166.407212 477151.7996
 -17231.81728 -8021.515351 477085.5176
 -18940.50102 -7829.126686 477023.9339
 -20064.93037 -7628.333174 476981.2139
 0 0 -0
 0 0 0
 19705.18805 -9572.731858 476961.1511
 18657.4458 -9878.445278 476997.0517
 17025.74145 -10177.29182 477051.7982
 15066.30689 -10402.52441 477112.8432
 12916.53065 -10555.9409 477172.5125
 10654.78749 -10654.81586 477226.1746
 8327.822596 -10716.53935 477271.0702
 5964.735333 -10753.84711 477305.6128
 3583.779312 -10774.63375 477328.959
 1195.26224 -10783.78667 477340.7091
 -1195.26167 -10783.78676 477340.7091
 -3583.778771 -10774.63392 477328.959
 -5964.73476 -10753.84743 477305.6128
 -8327.822083 -10716.53976 477271.0702
 -10654.78694 -10654.81639 477226.1746
 -12916.53018 -10555.94152 477172.5125
 -15066.30638 -10402.52511 477112.8432
 -17025.74102 -10177.29259 477051.7982
 -18657.44535 -9878.446091 476997.0517
 -19705.18765 -9572.732703 476961.1511
 0 0 -0
 0 0 0
 19466.6315 -10861.71664 476943.3349
 18308.83481 -11626.19159 476971.1622
 16730.88149 -12165.39788 477015.6727
 14848.35211 -12529.17211 477068.567
 12765.88052 -12765.90862 477122.5578
 10555.91264 -12916.55897 477172.5123
 8264.980173 -13012.73354 477215.0775
 5925.758822 -13073.86655 477248.1856
 3562.302777 -13109.3944 477270.7042
 1188.388834 -13125.43432 477282.078
 -1188.388178 -13125.43436 477282.078
 -3562.302115 -13109.39461 477270.7042
 -5925.75819 -13073.86684 477248.1856
 -8264.979529 -13012.73396 477215.0775
 -10555.91205 -12916.55948 477172.5123
 -12765.87991 -12765.90921 477122.5578
 -14848.35157 -12529.17279 477068.567
 -16730.88094 -12165.39861 477015.6727
 -18308.83433 -11626.19238 476971.1622
 -19466.63104 -10861.71746 476943.3349
 0 0 -0
 0 0 0
 0 0 0
 17668.03262 -13127.67495 476956.3671
 16243.97057 -13953.45205 476983.5489
 14500.74047 -14500.76833 477023.4036
 12529.14415 -14848.38013 477068.5668
 10402.49639 -15066.33501 477112.843
 8166.378333 -15209.93558 477151.7991
 5860.924201 -15307.84877 477182.5548
 3524.775159 -15366.44399 477203.6459
 1176.093845 -15393.05544 477214.3564
 -1176.093102 -15393.05552 477214.3564
 -3524.774427 -15366.44414 477203.6459
 -5860.92347 -15307.84906 477182.5548
 -8166.377635 -15209.93596 477151.7991
 -10402.49568 -15066.33549 477112.843
 -12529.14351 -14848.3807 477068.5668
 -14500.73982 -14500.76897 477023.4036
 -16243.96999 -13953.45276 476983.5489
 -17668.03207 -13127.6757 476956.3671
 0 0 -0
 0 0 -0
 0 0 0
 0 0 0
 0 0 0
 15466.06404 -15466.09174 476962.7576
 13953.42431 -16243.99836 476983.5487
 12165.3701 -16730.90937 477015.6724
 10177.26394 -17025.76947 477051.7978
 8021.486639 -17231.84579 477085.517
 5754.732896 -17391.39671 477112.4539
 3460.077764 -17486.51809 477131.1359
 1154.619416 -17528.67948 477140.7377
 -1154.618609 -17528.67951 477140.7377
 -3460.076956 -17486.51827 477131.1359
 -5754.732113 -17391.39696 477112.4539
 -8021.485857 -17231.84617 477085.517
 -10177.2632 -17025.76992 477051.7978
 -12165.36936 -16730.9099 477015.6724
 -13953.42364 -16243.99896 476983.5487
 -15466.06339 -15466.0924 476962.7576
 0 0 -0
 0 0 -0
 0 0 -0
 0 0 0
 0 0 0
 0 0 0
 0 0 0