# OOMMF OVF 2.0
#
# Segment count: 1
#
# Begin: Segment
# Begin: Header
#
# Title: Oxs_MinDriver::Magnetization
# Desc: Oxs vector field output
# Desc:  MIF source file: F:/Bogdan/UNIC/2022/Master_degree/Samples/Cylinder0_5000 1.mif
# Desc:  Iteration: 920, State id: 2000
# Desc:  Stage: 4, Stage iteration: 44
# Desc:  Stage simulation time: 0 s
# Desc:  Total simulation time: -2 s
# meshunit: m
# meshtype: rectangular
# xbase: -8.9999999999999995e-09
# ybase: -8.9999999999999995e-09
# zbase: -2.0999999999999999e-08
# xnodes: 10
# ynodes: 10
# znodes: 22
# xstepsize: 2.0000000000000001e-09
# ystepsize: 2.0000000000000001e-09
# zstepsize: 2.0000000000000001e-09
# xmin: -1e-08
# ymin: -1e-08
# zmin: -2.1999999999999998e-08
# xmax: 1e-08
# ymax: 1e-08
# zmax: 2.2000000000000005e-08
# valuedim: 3
# valuelabels: Magnetization_x Magnetization_y Magnetization_z
# valueunits: A/m A/m A/m
#
# End: Header
#
# Begin: Data Text
 0 0 0
 0 0 0
 0 0 0
 8332.112666 31437.82907 476355.0253
 3138.201832 31657.47656 476403.0092
 -3138.201574 31657.47656 476403.0092
 -8332.112408 31437.82908 476355.0253
 0 0 -0
 0 0 -0
 0 0 -0
 0 0 0
 23347.64722 23347.64521 476320.9487
 18562.7177 24341.42945 476481.6803
 10987.20797 26430.18344 476605.2853
 3714.184239 26997.54692 476685.6497
 -3714.183977 26997.54693 476685.6497
 -10987.20772 26430.18343 476605.2853
 -18562.71744 24341.42946 476481.6803
 -23347.64696 23347.64521 476320.9487
 0 0 -0
 0 0 0
 24341.43149 18562.71565 476481.6802
 19162.49218 19162.49015 476694.3142
 11882.08132 19984.133 476897.601
 4018.873315 20347.85742 477013.2961
 -4018.873053 20347.85741 477013.2961
 -11882.08106 19984.13301 476897.601
 -19162.49193 19162.49014 476694.3142
 -24341.43124 18562.71565 476481.6802
 0 0 -0
 31437.83111 8332.110629 476355.0252
 26430.18548 10987.20593 476605.2852
 19984.1351 11882.07922 476897.601
 12369.90227 12369.90021 477143.4191
 4181.917048 12585.88339 477279.7695
 -4181.916781 12585.88341 477279.7695
 -12369.90201 12369.9002 477143.4191
 -19984.13483 11882.07923 476897.601
 -26430.18522 10987.20593 476605.2852
 -31437.83085 8332.110629 476355.0252
 31657.47859 3138.19979 476403.0091
 26997.549 3714.182156 476685.6496
 20347.85947 4018.871256 477013.296
 12585.88553 4181.914916 477279.7695
 4254.022462 4254.020385 477426.0968
 -4254.022197 4254.020384 477426.0968
 -12585.88526 4181.914918 477279.7695
 -20347.85922 4018.871254 477013.296
 -26997.54873 3714.182157 476685.6496
 -31657.47833 3138.19979 476403.0091
 31657.4786 -3138.20363 476403.009
 26997.54897 -3714.186032 476685.6495
 20347.85952 -4018.87516 477013.296
 12585.88547 -4181.918858 477279.7695
 4254.022522 -4254.024329 477426.0968
 -4254.022254 -4254.024341 477426.0968
 -12585.88521 -4181.918848 477279.7695
 -20347.85925 -4018.875167 477013.296
 -26997.54871 -3714.186028 476685.6495
 -31657.47834 -3138.203631 476403.0091
 31437.83111 -8332.114451 476355.0251
 26430.1855 -10987.20979 476605.2851
 19984.13506 -11882.08312 476897.6009
 12369.90232 -12369.90412 477143.419
 4181.916996 -12585.88735 477279.7694
 -4181.916732 -12585.88732 477279.7694
 -12369.90205 -12369.90413 477143.419
 -19984.13481 -11882.08311 476897.6009
 -26430.18524 -10987.20979 476605.2851
 -31437.83086 -8332.114449 476355.0251
 0 0 0
 24341.4315 -18562.7195 476481.6801
 19162.49222 -19162.494 476694.314
 11882.08129 -19984.1369 476897.6009
 4018.873357 -20347.8613 477013.2959
 -4018.873093 -20347.86133 477013.2959
 -11882.08103 -19984.13688 476897.6009
 -19162.49196 -19162.49401 476694.314
 -24341.43124 -18562.7195 476481.6801
 0 0 -0
 0 0 0
 23347.64726 -23347.64902 476320.9485
 18562.71771 -24341.43328 476481.6801
 10987.208 -26430.18728 476605.2851
 3714.184216 -26997.55079 476685.6494
 -3714.183956 -26997.55077 476685.6494
 -10987.20774 -26430.18729 476605.2851
 -18562.71745 -24341.43328 476481.6801
 -23347.64701 -23347.64902 476320.9485
 0 0 -0
 0 0 0
 0 0 0
 0 0 0
 8332.112672 -31437.8329 476355.025
 3138.201844 -31657.48037 476403.0089
 -3138.201586 -31657.48038 476403.0089
 -8332.112415 -31437.83289 476355.025
 0 0 -0
 0 0 -0
 0 0 -0
 0 0 0
 0 0 0
 0 0 0
 6973.608777 27156.70425 476640.067
 2685.395499 27360.01726 476671.8886
 -2685.395249 27360.01728 476671.8886
 -6973.60853 27156.70425 476640.067
 0 0 -0
 0 0 -0
 0 0 -0
 0 0 0
 20131.95177 20131.9498 476614.3938
 16219.77424 21067.92578 476723.1196
 9577.040884 23172.91171 476805.1675
 3257.520665 23818.5389 476858.4036
 -3257.520416 23818.53887 476858.4036
 -9577.040629 23172.91174 476805.1675
 -16219.77399 21067.92577 476723.1196
 -20131.95152 20131.94981 476614.3938
 0 0 -0
 0 0 0
 21067.92773 16219.77227 476723.1195
 16904.82355 16904.8215 476865.1017
 10572.19768 17801.00582 477014.9098
 3591.385687 18219.69185 477102.7312
 -3591.385431 18219.6919 477102.7312
 -10572.19743 17801.00578 477014.9098
 -16904.8233 16904.82152 476865.1017
 -21067.92749 16219.77226 476723.1196
 0 0 -0
 27156.70622 6973.606811 476640.0669
 23172.91375 9577.03884 476805.1674
 17801.00775 10572.19573 477014.9097
 11119.86207 11119.85994 477204.9546
 3774.698916 11366.08072 477313.7701
 -3774.698665 11366.08068 477313.7701
 -11119.8618 11119.85997 477204.9546
 -17801.00751 10572.19571 477014.9097
 -23172.91349 9577.038852 476805.1674
 -27156.70598 6973.606808 476640.067
 27360.01927 2685.393492 476671.8885
 23818.54084 3257.518705 476858.4035
 18219.69397 3591.383586 477102.7311
 11366.08265 3774.696966 477313.7701
 3856.472536 3856.470393 477432.8503
 -3856.472275 3856.470396 477432.8503
 -11366.08241 3774.696963 477313.7701
 -18219.6937 3591.383589 477102.7311
 -23818.54061 3257.518702 476858.4035
 -27360.01901 2685.393493 476671.8885
 27360.01924 -2685.397233 476671.8885
 23818.54093 -3257.522466 476858.4035
 18219.69384 -3591.3874 477102.7311
 11366.08282 -3774.700775 477313.7701
 3856.472359 -3856.474255 477432.8503
 -3856.472108 -3856.474217 477432.8503
 -11366.08255 -3774.700808 477313.7701
 -18219.6936 -3591.387378 477102.7311
 -23818.54067 -3257.522477 476858.4035
 -27360.019 -2685.397229 476671.8885
 27156.70625 -6973.610528 476640.0669
 23172.91369 -9577.042613 476805.1674
 17801.00786 -10572.19949 477014.9096
 11119.86193 -11119.8638 477204.9545
 3774.699073 -11366.08449 477313.77
 -3774.698814 -11366.08456 477313.77
 -11119.86168 -11119.86374 477204.9545
 -17801.0076 -10572.19953 477014.9096
 -23172.91345 -9577.042592 476805.1674
 -27156.706 -6973.610531 476640.0669
 0 0 0
 21067.92779 -16219.77601 476723.1194
 16904.82349 -16904.82529 476865.1016
 10572.19779 -17801.00955 477014.9096
 3591.385569 -18219.69571 477102.731
 -3591.385318 -18219.69563 477102.731
 -10572.19753 -17801.00961 477014.9096
 -16904.82325 -16904.82525 476865.1016
 -21067.92753 -16219.77602 476723.1194
 0 0 -0
 0 0 0
 20131.95181 -20131.95353 476614.3937
 16219.77429 -21067.92949 476723.1194
 9577.04083 -23172.91549 476805.1673
 3257.52074 -23818.54261 476858.4034
 -3257.520488 -23818.54267 476858.4034
 -9577.040584 -23172.91545 476805.1673
 -16219.77404 -21067.92951 476723.1194
 -20131.95156 -20131.95352 476614.3937
 0 0 -0
 0 0 0
 0 0 0
 0 0 0
 6973.608805 -27156.70797 476640.0668
 2685.395481 -27360.021 476671.8884
 -2685.395232 -27360.02098 476671.8884
 -6973.608557 -27156.70798 476640.0668
 0 0 -0
 0 0 -0
 0 0 -0
 0 0 0
 0 0 0
 0 0 0
 5550.879027 22026.30269 476923.3702
 2150.712192 22197.90215 476942.8675
 -2150.71196 22197.90213 476942.8675
 -5550.878793 22026.3027 476923.3702
 0 0 -0
 0 0 -0
 0 0 -0
 0 0 0
 16322.10754 16322.10568 476905.7024
 13220.16241 17116.30389 476973.9309
 7794.271508 18935.58428 477024.6999
 2656.736602 19535.78508 477056.7746
 -2656.736365 19535.78514 477056.7746
 -7794.271281 18935.58424 477024.6999
 -13220.16217 17116.30391 476973.9309
 -16322.10731 16322.10567 476905.7024
 0 0 -0
 0 0 0
 17116.30582 13220.16047 476973.9309
 13866.22204 13866.22022 477061.1356
 8728.483022 14712.6539 477157.4402
 2975.813364 15127.60202 477215.016
 -2975.813134 15127.60194 477215.016
 -8728.482773 14712.65396 477157.4402
 -13866.22182 13866.22018 477061.1356
 -17116.30559 13220.16048 476973.9309
 0 0 -0
 22026.30461 5550.877119 476923.3701
 18935.58611 7794.269665 477024.6998
 14712.65595 8728.480979 477157.4401
 9269.119801 9269.118013 477284.0225
 3159.991138 9520.527574 477358.6129
 -3159.990893 9520.527625 477358.6129
 -9269.119583 9269.117968 477284.0225
 -14712.65569 8728.481012 477157.4401
 -18935.5859 7794.269647 477024.6998
 -22026.30437 5550.877122 476923.3701
 22197.90403 2150.71031 476942.8674
 19535.78709 2656.734611 477056.7745
 15127.6038 2975.811544 477215.0159
 9520.529683 3159.989051 477358.6129
 3244.509457 3244.507649 477441.9521
 -3244.509227 3244.507651 477441.9521
 -9520.529425 3159.989052 477358.6129
 -15127.60359 2975.811542 477215.016
 -19535.78684 2656.734613 477056.7745
 -22197.9038 2150.71031 476942.8674
 22197.90408 -2150.713891 476942.8674
 19535.78696 -2656.73823 477056.7745
 15127.60402 -2975.815158 477215.0159
 9520.52942 -3159.992738 477358.6128
 3244.50974 -3244.511286 477441.9521
 -3244.509494 -3244.511354 477441.9521
 -9520.529203 -3159.992681 477358.6129
 -15127.60376 -2975.815197 477215.0159
 -19535.78675 -2656.738209 477056.7745
 -22197.90384 -2150.713896 476942.8674
 22026.3046 -5550.880693 476923.3701
 18935.58623 -7794.273237 477024.6998
 14712.65578 -8728.484655 477157.4401
 9269.120036 -9269.121585 477284.0225
 3159.990889 -9520.531316 477358.6128
 -3159.990658 -9520.531198 477358.6128
 -9269.119784 -9269.121684 477284.0225
 -14712.65556 -8728.484587 477157.4401
 -18935.58598 -7794.273271 477024.6998
 -22026.30437 -5550.880685 476923.3701
 0 0 0
 17116.3058 -13220.16409 476973.9308
 13866.22218 -13866.22377 477061.1355
 8728.482858 -14712.6576 477157.44
 2975.813557 -15127.60555 477215.0159
 -2975.813317 -15127.60568 477215.0159
 -8728.482634 -14712.6575 477157.4401
 -13866.22194 -13866.22384 477061.1355
 -17116.30557 -13220.16406 476973.9308
 0 0 -0
 0 0 0
 16322.10761 -16322.10924 476905.7023
 13220.16239 -17116.3075 476973.9308
 7794.271614 -18935.58782 477024.6997
 2656.73649 -19535.78876 477056.7744
 -2656.736258 -19535.78866 477056.7744
 -7794.271376 -18935.58789 477024.6997
 -13220.16216 -17116.30746 476973.9308
 -16322.10738 -16322.10925 476905.7023
 0 0 -0
 0 0 0
 0 0 0
 0 0 0
 5550.879021 -22026.30629 476923.37
 2150.712235 -22197.90571 476942.8673
 -2150.712002 -22197.90574 476942.8673
 -5550.87879 -22026.30627 476923.37
 0 0 -0
 0 0 -0
 0 0 -0
 0 0 0
 0 0 0
 0 0 0
 4292.238726 17216.8584 477134.1821
 1665.316813 17350.73018 477145.7326
 -1665.3166 17350.73021 477145.7326
 -4292.238517 17216.85839 477134.1821
 0 0 -0
 0 0 -0
 0 0 -0
 0 0 0
 12759.15506 12759.15326 477122.9184
 10349.40914 13385.84449 477164.102
 6093.299669 14841.52197 477194.3757
 2077.610989 15337.07217 477213.0856
 -2077.610781 15337.0721 477213.0856
 -6093.299447 14841.52202 477194.3757
 -10349.40894 13385.84447 477164.102
 -12759.15484 12759.15327 477122.9184
 0 0 -0
 0 0 0
 13385.84623 10349.40739 477164.1019
 10886.26441 10886.26249 477215.7267
 6875.182426 11598.10469 477273.5978
 2348.681306 11957.07774 477308.4781
 -2348.681084 11957.07782 477308.4781
 -6875.182231 11598.10462 477273.5978
 -10886.26418 10886.26254 477215.7267
 -13385.84603 10349.40737 477164.1019
 0 0 -0
 17216.86019 4292.236956 477134.1821
 14841.52388 6093.297778 477194.3757
 11598.10635 6875.180751 477273.5978
 7344.845521 7344.843501 477351.0006
 2511.245038 7569.20642 477397.3943
 -2511.244833 7569.206363 477397.3943
 -7344.845281 7344.843551 477351.0006
 -11598.10616 6875.180714 477273.5978
 -14841.52364 6093.297797 477194.3757
 -17216.85998 4292.236951 477134.1821
 17350.73203 1665.314981 477145.7326
 15337.07386 2077.609261 477213.0855
 11957.07975 2348.67934 477308.4781
 7569.208052 2511.243372 477397.3943
 2587.80023 2587.798203 477449.9742
 -2587.800003 2587.798189 477449.9742
 -7569.207865 2511.243382 477397.3943
 -11957.0795 2348.679334 477308.4781
 -15337.07368 2077.609264 477213.0855
 -17350.73181 1665.31498 477145.7326
 17350.73199 -1665.31839 477145.7326
 15337.07404 -2077.612668 477213.0855
 11957.07948 -2348.682812 477308.4781
 7569.2084 -2511.246796 477397.3942
 2587.799862 -2587.80172 477449.9742
 -2587.799656 -2587.801619 477449.9742
 -7569.208158 -2511.246881 477397.3942
 -11957.0793 -2348.682753 477308.4781
 -15337.0738 -2077.6127 477213.0855
 -17350.73178 -1665.31838 477145.7326
 17216.86024 -4292.240339 477134.1821
 14841.52375 -6093.301231 477194.3756
 11598.10659 -6875.18412 477273.5977
 7344.845225 -7344.847051 477351.0006
 2511.245366 -7569.209772 477397.3942
 -2511.245143 -7569.209936 477397.3942
 -7344.845031 -7344.846912 477351.0006
 -11598.10635 -6875.184215 477273.5977
 -14841.52356 -6093.301182 477194.3757
 -17216.86002 -4292.240348 477134.1821
 0 0 0
 13385.84633 -10349.41078 477164.1019
 10886.26427 -10886.26599 477215.7266
 6875.182659 -11598.10802 477273.5977
 2348.68106 -11957.08132 477308.478
 -2348.680852 -11957.08114 477308.478
 -6875.182432 -11598.10816 477273.5977
 -10886.26408 -10886.26589 477215.7267
 -13385.84612 -10349.41081 477164.1019
 0 0 -0
 0 0 0
 12759.15509 -12759.15668 477122.9183
 10349.40924 -13385.84786 477164.1019
 6093.299557 -14841.52547 477194.3756
 2077.611144 -15337.0755 477213.0855
 -2077.610929 -15337.07563 477213.0855
 -6093.299352 -14841.52537 477194.3756
 -10349.40902 -13385.84791 477164.1019
 -12759.15488 -12759.15666 477122.9183
 0 0 -0
 0 0 0
 0 0 0
 0 0 0
 4292.238776 -17216.86181 477134.182
 1665.316773 -17350.73363 477145.7325
 -1665.316562 -17350.73359 477145.7325
 -4292.238564 -17216.86183 477134.182
 0 0 -0
 0 0 -0
 0 0 -0
 0 0 0
 0 0 0
 0 0 0
 3247.396799 13111.95671 477272.8803
 1260.207562 13210.98367 477279.5335
 -1260.207376 13210.98364 477279.5335
 -3247.39661 13111.95673 477272.8803
 0 0 -0
 0 0 -0
 0 0 -0
 0 0 0
 9719.12302 9719.121365 477266.1193
 7882.758092 10191.49096 477290.1287
 4634.394549 11307.54227 477307.5876
 1579.671344 11691.27544 477318.2272
 -1579.67115 11691.27551 477318.2272
 -4634.394372 11307.54221 477307.5876
 -7882.757895 10191.49098 477290.1287
 -9719.122837 9719.121353 477266.1193
 0 0 -0
 0 0 0
 10191.4927 7882.756347 477290.1287
 8297.876319 8297.874741 477319.7689
 5246.295511 8855.300162 477353.0469
 1793.642121 9140.409094 477373.1319
 -1793.641941 9140.409008 477373.1319
 -5246.295301 8855.300234 477353.0469
 -8297.876154 8297.874693 477319.7689
 -10191.4925 7882.756363 477290.1287
 0 0 -0
 13111.95845 3247.395093 477272.8803
 11307.54386 4634.392936 477307.5876
 8855.302054 5246.293644 477353.0468
 5621.177055 5621.175541 477397.8174
 1924.744564 5803.109695 477424.8533
 -1924.744362 5803.109744 477424.8533
 -5621.176896 5621.175497 477397.8174
 -8855.301831 5246.293675 477353.0468
 -11307.5437 4634.39292 477307.5876
 -13111.95825 3247.395095 477272.8803
 13210.98533 1260.205892 477279.5334
 11691.27729 1579.669545 477318.2272
 9140.410608 1793.64055 477373.1319
 5803.11165 1924.742653 477424.8533
 1987.503782 1987.502252 477455.7267
 -1987.503605 1987.502286 477455.7267
 -5803.111426 1924.742625 477424.8533
 -9140.410459 1793.640569 477373.1319
 -11691.27707 1579.669535 477318.2272
 -13210.98516 1260.205895 477279.5334
 13210.98541 -1260.209105 477279.5334
 11691.27709 -1579.672795 477318.2272
 9140.410932 -1793.643768 477373.1319
 5803.111251 -1924.745962 477424.8533
 1987.504211 -1987.505474 477455.7267
 -1987.504008 -1987.505608 477455.7267
 -5803.111093 -1924.745848 477424.8533
 -9140.410706 -1793.643848 477373.1319
 -11691.27694 -1579.672751 477318.2272
 -13210.98521 -1260.209118 477279.5334
 13111.95843 -3247.398308 477272.8803
 11307.54404 -4634.396125 477307.5875
 8855.301794 -5246.296969 477353.0468
 5621.177411 -5621.178687 477397.8174
 1924.744188 -5803.113089 477424.8533
 -1924.744008 -5803.112883 477424.8533
 -5621.177197 -5621.178861 477397.8174
 -8855.301634 -5246.296848 477353.0468
 -11307.54383 -4634.396186 477307.5875
 -13111.95824 -3247.398294 477272.8803
 0 0 0
 10191.49265 -7882.759616 477290.1286
 8297.876526 -8297.877897 477319.7689
 5246.295266 -8855.303539 477353.0468
 1793.642412 -9140.412197 477373.1318
 -1793.642217 -9140.412412 477373.1318
 -5246.295093 -8855.303361 477353.0468
 -8297.876321 -8297.878009 477319.7689
 -10191.49248 -7882.759572 477290.1286
 0 0 -0
 0 0 0
 9719.123108 -9719.124576 477266.1192
 7882.758052 -10191.49422 477290.1286
 4634.394708 -11307.54542 477307.5875
 1579.671176 -11691.2788 477318.2271
 -1579.670991 -11691.27864 477318.2271
 -4634.394513 -11307.54554 477307.5875
 -7882.75787 -10191.49416 477290.1286
 -9719.122918 -9719.124591 477266.1192
 0 0 -0
 0 0 0
 0 0 0
 0 0 0
 3247.396786 -13111.95998 477272.8802
 1260.207624 -13210.98687 477279.5334
 -1260.207436 -13210.98692 477279.5334
 -3247.396601 -13111.95995 477272.8802
 0 0 -0
 0 0 -0
 0 0 -0
 0 0 0
 0 0 0
 0 0 0
 2408.949466 9767.947301 477357.9951
 934.765296 9838.686667 477361.7054
 -934.7651336 9838.686691 477361.7054
 -2408.949308 9767.947285 477357.9951
 0 0 -0
 0 0 -0
 0 0 -0
 0 0 0
 7242.130978 7242.129386 477354.1394
 5869.761367 7587.328034 477367.6253
 3446.15711 8418.414337 477377.3409
 1174.020251 8704.10607 477383.2124
 -1174.020095 8704.106004 477383.2124
 -3446.156937 8418.414388 477377.3409
 -5869.761215 7587.328009 477367.6253
 -7242.130813 7242.12939 477354.1394
 0 0 -0
 0 0 0
 7587.329565 5869.759825 477367.6253
 6176.924591 6176.922872 477384.0828
 3905.052017 6594.105307 477402.4923
 1335.180419 6808.734183 477413.5835
 -1335.180247 6808.734256 477413.5835
 -3905.051878 6594.105245 477402.4923
 -6176.924405 6176.922911 477384.0828
 -7587.329417 5869.759809 477367.6253
 0 0 -0
 9767.948879 2408.947903 477357.9951
 8418.416054 3446.155428 477377.3409
 6594.106736 3905.050563 477402.4923
 4188.391783 4188.389965 477427.2573
 1434.839986 4326.916489 477442.2377
 -1434.839836 4326.91646 477442.2377
 -4188.391588 4188.389992 477427.2574
 -6594.106612 3905.050544 477402.4923
 -8418.415866 3446.155436 477377.3409
 -9767.948725 2408.947901 477357.9951
 9838.688324 934.7636727 477361.7053
 8704.107542 1174.018734 477383.2124
 6808.736007 1335.178668 477413.5835
 4326.91788 1434.838547 477442.2377
 1482.939499 1482.937679 477459.3942
 -1482.939322 1482.937618 477459.3942
 -4326.917753 1434.838598 477442.2377
 -6808.735802 1335.178631 477413.5835
 -8704.107413 1174.018754 477383.2124
 -9838.688151 934.7636659 477361.7053
 9838.688264 -934.766718 477361.7053
 8704.107759 -1174.021766 477383.2124
 6808.735672 -1335.181767 477413.5835
 4326.918306 -1434.841576 477442.2377
 1482.939047 -1482.940814 477459.3942
 -1482.938897 -1482.940649 477459.3942
 -4326.91811 -1434.841717 477442.2377
 -6808.735549 -1335.181666 477413.5835
 -8704.107567 -1174.021822 477383.2124
 -9838.688113 -934.7667012 477361.7053
 9767.948943 -2408.950923 477357.995
 8418.415903 -3446.158522 477377.3409
 6594.107036 -3905.053543 477402.4922
 4188.391421 -4188.393156 477427.2573
 1434.840388 -4326.919433 477442.2377
 -1434.840215 -4326.91967 477442.2377
 -4188.391285 -4188.392955 477427.2573
 -6594.106844 -3905.053683 477402.4923
 -8418.415764 -3446.158449 477377.3409
 -9767.948775 -2408.950938 477357.995
 0 0 0
 7587.329684 -5869.762852 477367.6252
 6176.924424 -6176.92602 477384.0828
 3905.052302 -6594.108241 477402.4922
 1335.18012 -6808.737416 477413.5835
 -1335.179964 -6808.737174 477413.5835
 -3905.052124 -6594.10844 477402.4922
 -6176.92428 -6176.925892 477384.0828
 -7587.329514 -5869.762899 477367.6252
 0 0 -0
 0 0 0
 7242.131012 -7242.132452 477354.1393
 5869.761483 -7587.331039 477367.6252
 3446.156976 -8418.417498 477377.3408
 1174.020439 -8704.109017 477383.2124
 -1174.020275 -8704.109191 477383.2124
 -3446.156822 -8418.417363 477377.3408
 -5869.761315 -7587.3311 477367.6252
 -7242.130855 -7242.132429 477354.1393
 0 0 -0
 0 0 0
 0 0 0
 0 0 0
 2408.949524 -9767.950351 477357.995
 934.765247 -9838.689777 477361.7053
 -934.7650872 -9838.689717 477361.7053
 -2408.949363 -9767.950385 477357.995
 0 0 -0
 0 0 -0
 0 0 -0
 0 0 0
 0 0 0
 0 0 0
 1746.972307 7103.665375 477407.9569
 677.7878417 7152.848679 477409.9377
 -677.7877102 7152.84866 477409.9377
 -1746.972172 7103.665386 477407.9569
 0 0 -0
 0 0 -0
 0 0 -0
 0 0 0
 5267.990388 5267.988925 477405.8733
 4266.114635 5513.659963 477413.1032
 2501.571764 6116.120939 477418.2721
 851.7347924 6322.281836 477421.3805
 -851.7346535 6322.281886 477421.3805
 -2501.571643 6116.1209 477418.2721
 -4266.114492 5513.659979 477413.1032
 -5267.990259 5267.988917 477405.8733
 0 0 -0
 0 0 0
 5513.661506 4266.113093 477413.1032
 4485.976785 4485.975393 477421.8505
 2834.326612 4787.516407 477431.5842
 968.8121747 4942.865307 477437.4313
 -968.8120503 4942.865258 477437.4313
 -2834.326455 4787.516447 477431.5842
 -4485.976676 4485.975366 477421.8505
 -5513.66136 4266.113101 477413.1032
 0 0 -0
 7103.666916 1746.9708 477407.9569
 6116.122347 2501.570339 477418.2721
 4787.518082 2834.324968 477431.5842
 3040.004791 3040.003458 477444.644
 1041.35975 3140.785675 477452.5341
 -1041.359603 3140.785675 477452.5341
 -3040.004689 3040.003458 477444.644
 -4787.517911 2834.324967 477431.5842
 -6116.122239 2501.57034 477418.2721
 -7103.666775 1746.970798 477407.9569
 7152.850153 677.7863641 477409.9377
 6322.283482 851.7332112 477421.3805
 4942.866636 968.810782 477437.4313
 3140.787404 1041.358073 477452.5341
 1076.470234 1076.468887 477461.573
 -1076.470113 1076.468977 477461.573
 -3140.787234 1041.357996 477452.5341
 -4942.866543 968.8108378 477437.4313
 -6322.283317 851.7331787 477421.3805
 -7152.850031 677.7863742 477409.9377
 7152.850228 -677.7892368 477409.9377
 6322.283282 -851.7361171 477421.3805
 4942.86697 -968.8136474 477437.4313
 3140.786993 -1041.361025 477452.5341
 1076.470677 -1076.471748 477461.573
 -1076.47053 -1076.471939 477461.573
 -3140.786891 -1041.360861 477452.5341
 -4942.866798 -968.8137652 477437.4313
 -6322.283178 -851.7360504 477421.3805
 -7152.850084 -677.789256 477409.9377
 7103.666898 -1746.973678 477407.9569
 6116.122527 -2501.573185 477418.272
 4787.517817 -2834.327947 477431.5842
 3040.005159 -3040.006251 477444.6439
 1041.359363 -3140.788715 477452.5341
 -1041.359238 -3140.788459 477452.5341
 -3040.005001 -3040.006469 477444.6439
 -4787.517711 -2834.327794 477431.5842
 -6116.122373 -2501.573263 477418.272
 -7103.66677 -1746.973659 477407.9569
 0 0 0
 5513.661463 -4266.116025 477413.1032
 4485.976999 -4485.978206 477421.8505
 2834.326362 -4787.519441 477431.5842
 968.8124741 -4942.868063 477437.4312
 -968.8123341 -4942.868316 477437.4312
 -2834.326244 -4787.519231 477431.5842
 -4485.976849 -4485.97834 477421.8505
 -5513.661339 -4266.115972 477413.1032
 0 0 -0
 0 0 0
 5267.990478 -5267.991804 477405.8733
 4266.114596 -5513.662897 477413.1032
 2501.57193 -6116.123753 477418.272
 851.7346215 -6322.28486 477421.3805
 -851.7344914 -6322.28468 477421.3805
 -2501.571789 -6116.123891 477418.272
 -4266.114468 -5513.662831 477413.1032
 -5267.990343 -5267.991822 477405.8733
 0 0 -0
 0 0 0
 0 0 0
 0 0 0
 1746.972294 -7103.668317 477407.9569
 677.7879059 -7152.851548 477409.9377
 -677.7877723 -7152.851609 477409.9377
 -1746.972163 -7103.66828 477407.9569
 0 0 -0
 0 0 -0
 0 0 -0
 0 0 0
 0 0 0
 0 0 0
 1224.628257 4988.937185 477436.3644
 475.0499695 5022.069336 477437.3513
 -475.049864 5022.069347 477437.3513
 -1224.628156 4988.937178 477436.3644
 0 0 -0
 0 0 -0
 0 0 -0
 0 0 0
 3700.481918 3700.480507 477435.3194
 2994.312367 3869.555781 477438.9301
 1754.02831 4290.995399 477441.4959
 596.9015252 4434.381668 477443.0346
 -596.9014258 4434.381641 477443.0346
 -1754.028194 4290.995419 477441.4959
 -2994.312271 3869.555771 477438.9301
 -3700.48181 3700.480508 477435.3194
 0 0 -0
 0 0 0
 3869.557149 2994.31099 477438.93
 3145.977486 3145.975979 477443.2709
 1986.193856 3355.661475 477448.0766
 678.6344999 3463.607599 477450.9547
 -678.6343863 3463.607615 477450.9547
 -1986.193772 3355.661462 477448.0766
 -3145.977359 3145.975985 477443.2709
 -3869.557056 2994.310988 477438.93
 0 0 -0
 4988.938595 1224.626866 477436.3644
 4290.99691 1754.026833 477441.4959
 3355.662769 1986.192541 477448.0766
 2129.403017 2129.40144 477454.5032
 729.2032825 2199.543775 477458.3768
 -729.2031888 2199.54381 477458.3768
 -2129.402883 2129.401409 477454.5032
 -3355.662697 1986.192564 477448.0766
 -4290.996782 1754.026818 477441.4959
 -4988.938496 1224.62687 477436.3644
 5022.070806 475.0485351 477437.3513
 4434.382996 596.9001603 477443.0346
 3463.609189 678.632978 477450.9547
 2199.545042 729.2019725 477458.3768
 753.6746356 753.6730619 477462.8103
 -753.6745183 753.6729423 477462.8103
 -2199.544967 729.2020757 477458.3768
 -3463.609048 678.6329022 477450.9547
 -4434.38292 596.9002047 477443.0346
 -5022.070691 475.0485208 477437.3513
 5022.070755 -475.0512774 477437.3513
 4434.383186 -596.9028902 477443.0346
 3463.608899 -678.6357627 477450.9547
 2199.545414 -729.2046956 477458.3768
 753.67424 -753.6758732 477462.8103
 -753.6741455 -753.6756657 477462.8103
 -2199.545281 -729.2048744 477458.3768
 -3463.608828 -678.6356324 477450.9547
 -4434.383056 -596.9029642 477443.0346
 -5022.07066 -475.0512547 477437.3513
 4988.938653 -1224.629588 477436.3644
 4290.996783 -1754.029617 477441.4959
 3355.663032 -1986.195226 477448.0766
 2129.402703 -2129.404302 477454.5031
 729.2036342 -2199.546428 477458.3768
 -729.2035212 -2199.546687 477458.3768
 -2129.402619 -2129.40408 477454.5032
 -3355.662903 -1986.195382 477448.0766
 -4290.996696 -1754.029534 477441.4959
 -4988.938543 -1224.629605 477436.3644
 0 0 0
 3869.557258 -2994.313722 477438.93
 3145.977345 -3145.978811 477443.2709
 1986.194106 -3355.664125 477448.0766
 678.6342405 -3463.610501 477450.9547
 -678.6341409 -3463.610252 477450.9547
 -1986.193989 -3355.664331 477448.0766
 -3145.977255 -3145.978677 477443.2709
 -3869.557146 -2994.313772 477438.93
 0 0 -0
 0 0 0
 3700.481957 -3700.483275 477435.3193
 2994.312473 -3869.558495 477438.93
 1754.028196 -4290.998246 477441.4959
 596.9016895 -4434.384336 477443.0345
 -596.9015828 -4434.384509 477443.0345
 -1754.028098 -4290.998111 477441.4959
 -2994.312364 -3869.558558 477438.93
 -3700.481855 -3700.483252 477435.3193
 0 0 -0
 0 0 0
 0 0 0
 0 0 0
 1224.628311 -4988.939944 477436.3644
 475.0499284 -5022.072144 477437.3513
 -475.0498252 -5022.072085 477437.3513
 -1224.628206 -4988.939978 477436.3644
 0 0 -0
 0 0 -0
 0 0 -0
 0 0 0
 0 0 0
 0 0 0
 805.5169359 3285.446892 477452.0167
 312.4248848 3306.529888 477452.4485
 -312.4248113 3306.529886 477452.4485
 -805.5168595 3285.446892 477452.0167
 0 0 -0
 0 0 -0
 0 0 -0
 0 0 0
 2437.338289 2437.336972 477451.5578
 1970.912942 2546.839285 477453.1395
 1153.647348 2823.376207 477454.2585
 392.4264737 2916.961792 477454.9284
 -392.4263946 2916.961791 477454.9284
 -1153.647283 2823.376208 477454.2585
 -1970.91286 2546.839283 477453.1395
 -2437.338217 2437.336972 477451.5578
 0 0 -0
 0 0 0
 2546.840652 1970.911576 477453.1395
 2069.20892 2069.207637 477455.0325
 1305.482869 2205.945998 477457.1193
 445.8798816 2276.237946 477458.366
 -445.8798137 2276.23797 477458.366
 -1305.482776 2205.945977 477457.1193
 -2069.208863 2069.207652 477455.0325
 -2546.840568 1970.911567 477453.1395
 0 0 -0
 3285.448267 805.5155926 477452.0167
 2823.377503 1153.646045 477454.2585
 2205.947446 1305.481444 477457.1193
 1398.862693 1398.861436 477459.9016
 478.8624095 1444.533151 477461.5747
 -478.862325 1444.533076 477461.5747
 -1398.862641 1398.861501 477459.9016
 -2205.947344 1305.481395 477457.1193
 -2823.377446 1153.646073 477454.2585
 -3285.448187 805.5155848 477452.0167
 3306.531227 312.4235515 477452.4485
 2916.963228 392.425087 477454.9284
 2276.239199 445.8785868 477458.366
 1444.534625 478.8609724 477461.5747
 494.8018994 494.8006251 477463.4872
 -494.8018334 494.8007713 477463.4872
 -1444.534525 478.8608453 477461.5747
 -2276.239153 445.8786812 477458.366
 -2916.963131 392.4250312 477454.9284
 -3306.531159 312.423569 477452.4485
 3306.531283 -312.4261717 477452.4485
 2916.963087 -392.4277313 477454.9284
 2276.239441 -445.8812035 477458.366
 1444.534329 -478.8636493 477461.5747
 494.8022214 -494.8032395 477463.4872
 -494.802138 -494.8034538 477463.4872
 -1444.534274 -478.8634635 477461.5747
 -2276.239341 -445.8813398 477458.366
 -2916.963031 -392.4276522 477454.9284
 -3306.531201 -312.4261953 477452.4485
 3285.448261 -805.5182149 477452.0167
 2823.377638 -1153.648649 477454.2585
 2205.94726 -1305.484141 477457.1193
 1398.862961 -1398.864005 477459.9016
 478.8621299 -1444.535889 477461.5747
 -478.8620603 -1444.53564 477461.5747
 -1398.862871 -1398.864218 477459.9016
 -2205.947202 -1305.483989 477457.1193
 -2823.37755 -1153.648729 477454.2585
 -3285.448189 -805.5181959 477452.0167
 0 0 0
 2546.840633 -1970.914244 477453.1395
 2069.209081 -2069.210222 477455.0325
 1305.482693 -2205.948737 477457.1193
 445.8800995 -2276.240494 477458.366
 -445.8800212 -2276.240722 477458.3659
 -1305.482626 -2205.948546 477457.1193
 -2069.208997 -2069.210346 477455.0325
 -2546.840563 -1970.914195 477453.1395
 0 0 -0
 0 0 0
 2437.338371 -2437.339605 477451.5578
 1970.912925 -2546.841955 477453.1395
 1153.647473 -2823.378798 477454.2585
 392.4263523 -2916.964527 477454.9284
 -392.4262792 -2916.96437 477454.9284
 -1153.647394 -2823.378919 477454.2585
 -1970.912853 -2546.841896 477453.1395
 -2437.338294 -2437.339622 477451.5578
 0 0 -0
 0 0 0
 0 0 0
 0 0 0
 805.516933 -3285.449576 477452.0167
 312.4249333 -3306.532521 477452.4484
 -312.4248585 -3306.532573 477452.4484
 -805.5168595 -3285.449544 477452.0167
 0 0 -0
 0 0 -0
 0 0 -0
 0 0 0
 0 0 0
 0 0 0
 456.4580456 1863.044309 477460.147
 177.0206525 1874.713623 477460.2867
 -177.0206067 1874.713615 477460.2867
 -456.4580024 1863.044315 477460.147
 0 0 -0
 0 0 -0
 0 0 -0
 0 0 0
 1382.276108 1382.274833 477459.9982
 1117.23543 1443.644 477460.5104
 653.6238625 1600.038847 477460.8716
 222.2739728 1652.756144 477461.0877
 -222.2739309 1652.756176 477461.0877
 -653.6238106 1600.038821 477460.8716
 -1117.23539 1443.644013 477460.5104
 -1382.276061 1382.274827 477459.9982
 0 0 -0
 0 0 0
 1443.645266 1117.234159 477460.5104
 1172.327097 1172.325779 477461.1216