# OOMMF OVF 2.0
#
# Segment count: 1
#
# Begin: Segment
# Begin: Header
#
# Title: Oxs_MinDriver::Magnetization
# Desc: Oxs vector field output
# Desc:  MIF source file: F:/Bogdan/UNIC/2022/Master_degree/Samples/Cylinder0_5000 1.mif
# Desc:  Iteration: 961, State id: 2104
# Desc:  Stage: 5, Stage iteration: 44
# Desc:  Stage simulation time: 0 s
# Desc:  Total simulation time: -2 s
# meshunit: m
# meshtype: rectangular
# xbase: -8.9999999999999995e-09
# ybase: -8.9999999999999995e-09
# zbase: -2.0999999999999999e-08
# xnodes: 10
# ynodes: 10
# znodes: 22
# xstepsize: 2.0000000000000001e-09
# ystepsize: 2.0000000000000001e-09
# zstepsize: 2.0000000000000001e-09
# xmin: -1e-08
# ymin: -1e-08
# zmin: -2.1999999999999998e-08
# xmax: 1e-08
# ymax: 1e-08
# zmax: 2.2000000000000005e-08
# valuedim: 3
# valuelabels: Magnetization_x Magnetization_y Magnetization_z
# valueunits: A/m A/m A/m
#
# End: Header
#
# Begin: Data Text
 0 0 0
 0 0 0
 0 0 0
 8010.188545 30094.79097 476447.2812
 3012.900254 30302.62626 476491.9145
 -3012.900216 30302.62626 476491.9145
 -8010.188507 30094.79096 476447.2812
 0 0 -0
 0 0 -0
 0 0 -0
 0 0 0
 22358.37424 22358.37419 476415.8661
 17757.15559 23299.55024 476564.4612
 10515.60308 25268.4827 476678.9246
 3553.709887 25794.02765 476753.5113
 -3553.709848 25794.02764 476753.5113
 -10515.60304 25268.4827 476678.9246
 -17757.15555 23299.55024 476564.4612
 -22358.3742 22358.3742 476415.8661
 0 0 -0
 0 0 0
 23299.55029 17757.15554 476564.4612
 18311.11609 18311.11605 476761.2373
 11343.48203 19071.86406 476948.0692
 3834.736255 19404.34271 477054.1244
 -3834.736218 19404.34272 477054.1244
 -11343.48199 19071.86406 476948.0692
 -18311.11605 18311.11605 476761.2373
 -23299.55025 17757.15554 476564.4612
 0 0 -0
 30094.79101 8010.188496 476447.2812
 25268.48274 10515.60304 476678.9246
 19071.86412 11343.48197 476948.0692
 11789.96525 11789.96522 477172.7829
 3983.212718 11985.79238 477296.9161
 -3983.212676 11985.79236 477296.9161
 -11789.96522 11789.96523 477172.7829
 -19071.86408 11343.48196 476948.0692
 -25268.48271 10515.60304 476678.9246
 -30094.79097 8010.188495 476447.2812
 30302.62631 3012.900209 476491.9145
 25794.0277 3553.709832 476753.5113
 19404.34275 3834.736218 477054.1244
 11985.79244 3983.212658 477296.9161
 4048.309583 4048.309542 477429.6741
 -4048.309546 4048.30956 477429.6741
 -11985.79239 3983.212643 477296.9161
 -19404.34272 3834.73623 477054.1244
 -25794.02766 3553.709825 476753.5113
 -30302.62627 3012.900211 476491.9145
 30302.62631 -3012.900266 476491.9145
 25794.02769 -3553.70989 476753.5113
 19404.34278 -3834.736275 477054.1244
 11985.79241 -3983.212717 477296.9161
 4048.309612 -4048.309599 477429.6741
 -4048.30957 -4048.309619 477429.6741
 -11985.79237 -3983.2127 477296.9161
 -19404.34273 -3834.736288 477054.1244
 -25794.02765 -3553.709882 476753.5113
 -30302.62627 -3012.900268 476491.9145
 30094.79101 -8010.188553 476447.2812
 25268.48276 -10515.60309 476678.9246
 19071.8641 -11343.48203 476948.0692
 11789.96528 -11789.96527 477172.7829
 3983.212692 -11985.79244 477296.9161
 -3983.212655 -11985.79242 477296.9161
 -11789.96523 -11789.96529 477172.7829
 -19071.86407 -11343.48202 476948.0692
 -25268.48271 -10515.6031 476678.9246
 -30094.79097 -8010.188551 476447.2812
 0 0 0
 23299.55028 -17757.1556 476564.4612
 18311.1161 -18311.1161 476761.2373
 11343.48201 -19071.86412 476948.0692
 3834.736275 -19404.34277 477054.1244
 -3834.736235 -19404.34278 477054.1244
 -11343.48197 -19071.86411 476948.0692
 -18311.11606 -18311.11611 476761.2373
 -23299.55025 -17757.1556 476564.4612
 0 0 -0
 0 0 0
 22358.37424 -22358.37425 476415.8661
 17757.15559 -23299.5503 476564.4612
 10515.60309 -25268.48276 476678.9246
 3553.709876 -25794.02771 476753.5113
 -3553.709838 -25794.0277 476753.5113
 -10515.60305 -25268.48276 476678.9246
 -17757.15555 -23299.55029 476564.4612
 -22358.3742 -22358.37425 476415.8661
 0 0 -0
 0 0 0
 0 0 0
 0 0 0
 8010.188543 -30094.79102 476447.2812
 3012.900258 -30302.62632 476491.9145
 -3012.900219 -30302.62632 476491.9145
 -8010.188505 -30094.79102 476447.2812
 0 0 -0
 0 0 -0
 0 0 -0
 0 0 0
 0 0 0
 0 0 0
 6677.525431 25916.465 476713.3508
 2570.071266 26109.7908 476742.6401
 -2570.071228 26109.7908 476742.6401
 -6677.525396 25916.465 476713.3508
 0 0 -0
 0 0 -0
 0 0 -0
 0 0 0
 19217.99723 19217.99718 476689.8451
 15475.88599 20106.70622 476789.3546
 9142.210793 22100.77958 476864.6001
 3109.562341 22707.62146 476913.5832
 -3109.562307 22707.62148 476913.5832
 -9142.21075 22100.77957 476864.6001
 -15475.88596 20106.70622 476789.3546
 -19217.99719 19217.99717 476689.8451
 0 0 -0
 0 0 0
 20106.70625 15475.88596 476789.3546
 16118.88359 16118.88352 476919.5262
 10074.76608 16958.24506 477056.3785
 3421.258817 17347.61352 477136.4863
 -3421.258775 17347.61349 477136.4863
 -10074.76606 16958.24509 477056.3785
 -16118.88354 16118.88351 476919.5262
 -20106.70622 15475.88597 476789.3546
 0 0 -0
 25916.46504 6677.525391 476713.3508
 22100.77965 9142.210728 476864.6001
 16958.24508 10074.76607 477056.3785
 10583.56943 10583.56935 477229.3447
 3590.84353 10810.77742 477328.0887
 -3590.8435 10810.77746 477328.0887
 -10583.56938 10583.56931 477229.3447
 -16958.24506 10074.76609 477056.3785
 -22100.77959 9142.210711 476864.6001
 -25916.46501 6677.525395 476713.3508
 26109.79086 2570.071213 476742.6401
 22707.62149 3109.562315 476913.5832
 17347.61359 3421.258741 477136.4863
 10810.77744 3590.843512 477328.0887
 3665.993676 3665.993609 477435.8515
 -3665.993631 3665.993553 477435.8515
 -10810.77742 3590.843562 477328.0887
 -17347.61353 3421.258702 477136.4863
 -22707.62147 3109.562339 476913.5832
 -26109.79081 2570.071205 476742.6401
 26109.79084 -2570.071269 476742.6401
 22707.62154 -3109.56237 476913.5832
 17347.61352 -3421.258799 477136.4863
 10810.77753 -3590.843566 477328.0887
 3665.993593 -3665.99367 477435.8515
 -3665.993563 -3665.993606 477435.8515
 -10810.77747 -3590.843622 477328.0887
 -17347.6135 -3421.258757 477136.4863
 -22707.62149 -3109.562395 476913.5832
 -26109.79081 -2570.07126 476742.6401
 25916.46505 -6677.525445 476713.3508
 22100.77961 -9142.210786 476864.6001
 16958.24514 -10074.76612 477056.3785
 10583.56936 -10583.56942 477229.3447
 3590.843604 -10810.77747 477328.0887
 -3590.84356 -10810.77753 477328.0887
 -10583.56934 -10583.56936 477229.3447
 -16958.24509 -10074.76616 477056.3785
 -22100.77958 -9142.210764 476864.6001
 -25916.46501 -6677.52545 476713.3508
 0 0 0
 20106.70627 -15475.88601 476789.3545
 16118.88355 -16118.88359 476919.5262
 10074.76614 -16958.24511 477056.3785
 3421.258761 -17347.61359 477136.4863
 -3421.258728 -17347.61353 477136.4863
 -10074.76609 -16958.24515 477056.3785
 -16118.88353 -16118.88356 476919.5262
 -20106.70623 -15475.88602 476789.3546
 0 0 -0
 0 0 0
 19217.99722 -19217.99723 476689.8451
 15475.88601 -20106.70627 476789.3545
 9142.210762 -22100.77964 476864.6001
 3109.562374 -22707.62151 476913.5832
 -3109.562335 -22707.62154 476913.5832
 -9142.210731 -22100.77962 476864.6001
 -15475.88597 -20106.70628 476789.3545
 -19217.99719 -19217.99723 476689.8451
 0 0 -0
 0 0 0
 0 0 0
 0 0 0
 6677.525439 -25916.46505 476713.3508
 2570.071255 -26109.79086 476742.6401
 -2570.07122 -26109.79085 476742.6401
 -6677.525401 -25916.46506 476713.3508
 0 0 -0
 0 0 -0
 0 0 -0
 0 0 0
 0 0 0
 0 0 0
 5293.642057 20944.14355 476975.0428
 2050.514939 21107.64766 476992.8028
 -2050.514906 21107.64767 476992.8028
 -5293.642021 20944.14354 476975.0428
 0 0 -0
 0 0 -0
 0 0 -0
 0 0 0
 15524.29436 15524.29432 476958.975
 12571.39138 16278.37162 477020.8025
 7415.67332 18001.07872 477066.9138
 2527.981623 18567.57122 477096.1391
 -2527.981584 18567.57119 477096.1391
 -7415.673296 18001.07874 477066.9138
 -12571.39134 16278.37161 477020.8025
 -15524.29433 15524.29432 476958.975
 0 0 -0
 0 0 0
 16278.37168 12571.39133 477020.8025
 13181.23535 13181.23534 477099.97
 8295.014312 13978.00417 477187.2582
 2827.556252 14367.19754 477239.4157
 -2827.556225 14367.19759 477239.4157
 -8295.014258 13978.00412 477187.2582
 -13181.23534 13181.23538 477099.97
 -16278.37164 12571.39131 477020.8025
 0 0 -0
 20944.1436 5293.642006 476975.0428
 18001.07874 7415.673303 477066.9138
 13978.00425 8295.014225 477187.2582
 8801.390761 8801.390761 477301.7309
 2999.581446 9035.962193 477369.066
 -2999.581401 9035.962111 477369.066
 -8801.390755 8801.390833 477301.7309
 -13978.00418 8295.014171 477187.2582
 -18001.07873 7415.673334 477066.9138
 -20944.14356 5293.641999 476975.0428
 21107.6477 2050.514905 476992.8028
 18567.57129 2527.98155 477096.1391
 14367.19755 2827.556247 477239.4157
 9035.962271 2999.581365 477369.066
 3078.211225 3078.211201 477444.1544
 -3078.211203 3078.211304 477444.1544
 -9035.962204 2999.581274 477369.066
 -14367.19755 2827.556317 477239.4157
 -18567.57122 2527.981507 477096.1391
 -21107.64768 2050.514918 476992.8028
 21107.64772 -2050.514958 476992.8028
 18567.57121 -2527.981606 477096.1391
 14367.19766 -2827.556298 477239.4157
 9035.962141 -2999.581425 477369.066
 3078.211347 -3078.21125 477444.1544
 -3078.2113 -3078.211364 477444.1544
 -9035.962139 -2999.581324 477369.066
 -14367.19759 -2827.556375 477239.4157
 -18567.57121 -2527.98156 477096.1391
 -21107.64768 -2050.514973 476992.8028
 20944.14358 -5293.642061 476975.0428
 18001.0788 -7415.673353 477066.9138
 13978.00416 -8295.014288 477187.2582
 8801.390874 -8801.390803 477301.7309
 2999.581338 -9035.962263 477369.066
 -2999.581314 -9035.962151 477369.066
 -8801.390812 -8801.3909 477301.7309
 -13978.00415 -8295.014217 477187.2582
 -18001.07874 -7415.673392 477066.9138
 -20944.14355 -5293.642051 476975.0428
 0 0 0
 16278.37165 -12571.39138 477020.8025
 13181.23542 -13181.23539 477099.97
 8295.01423 -13978.00423 477187.2582
 2827.556334 -14367.19758 477239.4157
 -2827.556292 -14367.19767 477239.4157
 -8295.014214 -13978.00416 477187.2582
 -13181.23536 -13181.23544 477099.97
 -16278.37163 -12571.39136 477020.8025
 0 0 -0
 0 0 0
 15524.29437 -15524.29437 476958.975
 12571.39136 -16278.37168 477020.8025
 7415.673365 -18001.07876 477066.9138
 2527.981574 -18567.57129 477096.1391
 -2527.981544 -18567.57123 477096.1391
 -7415.673322 -18001.07881 477066.9138
 -12571.39133 -16278.37166 477020.8025
 -15524.29433 -15524.29438 476958.975
 0 0 -0
 0 0 0
 0 0 0
 0 0 0
 5293.642046 -20944.1436 476975.0428
 2050.514954 -21107.64771 476992.8028
 -2050.514919 -21107.64773 476992.8028
 -5293.642014 -20944.14359 476975.0428
 0 0 -0
 0 0 -0
 0 0 -0
 0 0 0
 0 0 0
 0 0 0
 4078.151659 16312.92619 477167.82
 1581.941557 16440.39969 477178.2497
 -1581.941524 16440.39968 477178.2497
 -4078.151631 16312.9262 477167.82
 0 0 -0
 0 0 -0
 0 0 -0
 0 0 0
 12092.53744 12092.5374 477157.6389
 9807.823436 12686.48371 477194.6469
 5777.721755 14061.75938 477221.915
 1970.358219 14529.35433 477238.8153
 -1970.358193 14529.35437 477238.8153
 -5777.721711 14061.75934 477221.915
 -9807.823415 12686.48373 477194.6469
 -12092.53741 12092.53739 477157.6389
 0 0 -0
 0 0 0
 12686.48373 9807.823411 477194.6469
 10314.88062 10314.88054 477241.1107
 6513.805406 10985.41995 477293.1617
 2225.110757 11322.92358 477324.5349
 -2225.110715 11322.92349 477324.5349
 -6513.805401 10985.42002 477293.1617
 -10314.88056 10314.88049 477241.1107
 -12686.48372 9807.823433 477194.6469
 0 0 -0
 16312.92622 4078.151626 477167.82
 14061.75945 5777.721684 477221.915
 10985.41994 6513.805409 477293.1617
 6954.811211 6954.811125 477362.6844
 2377.476296 7165.051285 477404.316
 -2377.47628 7165.05141 477404.316
 -6954.811141 6954.811014 477362.6844
 -10985.41996 6513.805492 477293.1617
 -14061.75939 5777.721636 477221.915
 -16312.9262 4078.151637 477167.82
 16440.39974 1581.941505 477178.2497
 14529.35434 1970.358208 477238.8153
 11322.92366 2225.110675 477324.5349
 7165.051299 2377.476286 477404.316
 2449.075711 2449.075661 477451.4377
 -2449.075661 2449.075505 477451.4377
 -7165.051313 2377.476424 477404.316
 -11322.92357 2225.110569 477324.5349
 -14529.35435 1970.358272 477238.8153
 -16440.3997 1581.941484 477178.2497
 16440.39971 -1581.941557 477178.2497
 14529.35443 -1970.358258 477238.8153
 11322.92352 -2225.110732 477324.5349
 7165.051453 -2377.476332 477404.316
 2449.07557 -2449.075722 477451.4377
 -2449.075556 -2449.07555 477451.4377
 -7165.051377 -2377.476483 477404.316
 -11322.92354 -2225.110617 477324.5349
 -14529.35436 -1970.358327 477238.8153
 -16440.3997 -1581.941535 477178.2497
 16312.92624 -4078.151676 477167.82
 14061.75938 -5777.721741 477221.915
 10985.42006 -6513.80545 477293.1617
 6954.811078 -6954.811194 477362.6844
 2377.47642 -7165.051317 477404.316
 -2377.476374 -7165.051482 477404.316
 -6954.811085 -6954.811051 477362.6844
 -10985.41998 -6513.805555 477293.1617
 -14061.75938 -5777.721683 477221.915
 -16312.9262 -4078.15169 477167.82
 0 0 0
 12686.48377 -9807.823459 477194.6469
 10314.88054 -10314.88061 477241.1107
 6513.805503 -10985.41998 477293.1617
 2225.110663 -11322.92366 477324.5349
 -2225.110642 -11322.92352 477324.5349
 -6513.805446 -10985.42009 477293.1617
 -10314.88054 -10314.88053 477241.1107
 -12686.48372 -9807.82349 477194.6469
 0 0 -0
 0 0 0
 12092.53743 -12092.53745 477157.6389
 9807.823467 -12686.48375 477194.6469
 5777.721702 -14061.75945 477221.915
 1970.358274 -14529.35436 477238.8153
 -1970.358238 -14529.35444 477238.8153
 -5777.721684 -14061.75938 477221.915
 -9807.823425 -12686.48379 477194.6469
 -12092.53741 -12092.53744 477157.6389
 0 0 -0
 0 0 0
 0 0 0
 0 0 0
 4078.151672 -16312.92624 477167.82
 1581.941539 -16440.39975 477178.2497
 -1581.94151 -16440.39972 477178.2497
 -4078.151638 -16312.92625 477167.82
 0 0 -0
 0 0 -0
 0 0 -0
 0 0 0
 0 0 0
 0 0 0
 3075.341368 12383.32577 477293.4808
 1193.214198 12477.41906 477299.4464
 -1193.214172 12477.41908 477299.4464
 -3075.341338 12383.32575 477293.4808
 0 0 -0
 0 0 -0
 0 0 -0
 0 0 0
 9181.690126 9181.690094 477287.4023
 7446.488642 9628.17492 477308.8302
 4380.507652 10679.63187 477324.4472
 1493.438554 11041.01176 477333.9889
 -1493.438519 11041.0117 477333.9889
 -4380.50764 10679.63192 477324.4472
 -7446.488601 9628.174892 477308.8302
 -9181.690104 9181.690103 477287.4023
 0 0 -0
 0 0 0
 9628.174974 7446.488588 477308.8302
 7837.951263 7837.951258 477335.3165
 4955.62143 8362.3242 477365.0434
 1694.285266 8630.245805 477382.9904
 -1694.285252 8630.245926 477382.9904
 -4955.621369 8362.324097 477365.0434
 -7837.951271 7837.95133 477335.3165
 -9628.174928 7446.488557 477308.8302
 0 0 -0
 12383.32581 3075.341323 477293.4808
 10679.63188 4380.507641 477324.4472
 8362.324276 4955.621351 477365.0434
 5307.500336 5307.50033 477404.9981
 1817.185747 5478.092207 477429.1148
 -1817.1857 5478.092035 477429.1148
 -5307.500357 5307.500481 477404.9981
 -8362.324193 4955.621238 477365.0434
 -10679.6319 4380.507705 477324.4472
 -12383.32577 3075.341307 477293.4808
 12477.41909 1193.214169 477299.4464
 11041.01182 1493.438488 477333.9889
 8630.245821 1694.285258 477382.9904
 5478.092255 1817.185694 477429.1148
 1875.956292 1875.956233 477456.6293
 -1875.956286 1875.956444 477456.6293
 -5478.09217 1817.185507 477429.1148
 -8630.245861 1694.285401 477382.9904
 -11041.01174 1493.438401 477333.9889
 -12477.41908 1193.214197 477299.4464
 12477.41912 -1193.214218 477299.4464
 11041.01173 -1493.438541 477333.9889
 8630.245965 -1694.285303 477382.9904
 5478.092098 -1817.185752 477429.1148
 1875.956427 -1875.956275 477456.6293
 -1875.956376 -1875.956504 477456.6293
 -5478.092127 -1817.185551 477429.1148
 -8630.245869 -1694.285456 477382.9904
 -11041.01175 -1493.438449 477333.9889
 -12477.41908 -1193.214247 477299.4464
 12383.32579 -3075.341374 477293.4808
 10679.63196 -4380.507684 477324.4472
 8362.324156 -4955.621415 477365.0434
 5307.500472 -5307.500362 477404.9981
 1817.185629 -5478.09228 477429.1148
 -1817.18562 -5478.092063 477429.1148
 -5307.500396 -5307.500551 477404.9981
 -8362.324184 -4955.621276 477365.0434
 -10679.63189 -4380.507762 477324.4472
 -12383.32578 -3075.341355 477293.4808
 0 0 0
 9628.174938 -7446.488643 477308.8302
 7837.951343 -7837.951294 477335.3165
 4955.621332 -8362.324274 477365.0434
 1694.285356 -8630.245828 477382.9904
 -1694.285314 -8630.246004 477382.9904
 -4955.621337 -8362.324125 477365.0434
 -7837.95128 -7837.951394 477335.3165
 -9628.174929 -7446.488602 477308.8302
 0 0 -0
 0 0 0
 9181.690139 -9181.690141 477287.4023
 7446.488611 -9628.174978 477308.8302
 4380.507705 -10679.6319 477324.4472
 1493.438501 -11041.01184 477333.9889
 -1493.43848 -11041.01172 477333.9889
 -4380.507661 -10679.63199 477324.4472
 -7446.488597 -9628.174935 477308.8302
 -9181.690106 -9181.690156 477287.4023
 0 0 -0
 0 0 0
 0 0 0
 0 0 0
 3075.341357 -12383.32582 477293.4808
 1193.214215 -12477.4191 477299.4464
 -1193.214185 -12477.41914 477299.4464
 -3075.341333 -12383.3258 477293.4808
 0 0 -0
 0 0 -0
 0 0 -0
 0 0 0
 0 0 0
 0 0 0
 2274.959903 9199.147397 477369.9525
 882.6020137 9266.175845 477373.261
 -882.6019878 9266.175819 477373.261
 -2274.959884 9199.147413 477369.9525
 0 0 -0
 0 0 -0
 0 0 -0
 0 0 0
 6822.551975 6822.551934 477366.5016
 5529.403806 7147.873382 477378.4713
 3248.297717 7928.682991 477387.1132
 1106.85413 8197.059158 477392.3485
 -1106.854115 8197.059244 477392.3485
 -3248.297674 7928.682922 477387.1132
 -5529.403798 7147.873417 477378.4713
 -6822.551944 6822.551921 477366.5016
 0 0 -0
 0 0 0
 7147.873405 5529.403784 477378.4713
 5818.362818 5818.362755 477393.0923
 3678.607418 6209.948017 477409.4424
 1257.809979 6411.27728 477419.2966
 -1257.80994 6411.27713 477419.2966
 -3678.607433 6209.948146 477409.4424
 -5818.362753 5818.362666 477393.0923
 -7147.873403 5529.403821 477378.4713
 0 0 -0
 9199.147428 2274.959874 477369.9525
 7928.683046 3248.297659 477387.1132
 6209.948029 3678.60741 477409.4424
 3944.111453 3944.111402 477431.4184
 1351.10399 4073.849716 477444.7084
 -1351.103988 4073.849928 477444.7084
 -3944.111372 3944.111216 477431.4184
 -6209.948071 3678.607549 477409.4424
 -7928.682975 3248.297579 477387.1132
 -9199.147417 2274.959893 477369.9525
 9266.175886 882.6019702 477373.261
 8197.059183 1106.854112 477392.3485
 6411.277322 1257.809928 477419.2966
 4073.84977 1351.103942 477444.7084
 1396.109405 1396.109422 477459.9177
 -1396.109355 1396.109164 477459.9177
 -4073.849814 1351.10417 477444.7084
 -6411.277218 1257.809754 477419.2966
 -8197.059221 1106.854218 477392.3485
 -9266.175841 882.6019366 477373.261
 9266.175854 -882.6020197 477373.261
 8197.059278 -1106.854158 477392.3485
 6411.277187 -1257.809983 477419.2966
 4073.849909 -1351.103983 477444.7084
 1396.109298 -1396.109481 477459.9177
 -1396.1093 -1396.109204 477459.9177
 -4073.849818 -1351.104227 477444.7084
 -6411.277244 -1257.809797 477419.2966
 -8197.059192 -1106.85427 477392.3485
 -9266.175852 -882.6019843 477373.261
 9199.147448 -2274.959921 477369.9525
 7928.682972 -3248.297715 477387.1132
 6209.948142 -3678.607444 477409.4424
 3944.111333 -3944.111473 477431.4184
 1351.104084 -4073.84974 477444.7084
 -1351.104037 -4073.850002 477444.7084
 -3944.111367 -3944.111245 477431.4184
 -6209.948052 -3678.607612 477409.4424
 -7928.682996 -3248.297621 477387.1132
 -9199.147411 -2274.959943 477369.9525
 0 0 0
 7147.87344 -5529.403827 477378.4713
 5818.362745 -5818.36282 477393.0923
 3678.607504 -6209.948041 477409.4424
 1257.809909 -6411.27736 477419.2966
 -1257.809901 -6411.277149 477419.2966
 -3678.607441 -6209.94822 477409.4424
 -5818.362763 -5818.3627 477393.0923
 -7147.873395 -5529.403876 477378.4713
 0 0 -0
 0 0 0
 6822.551964 -6822.551985 477366.5016
 5529.403835 -7147.873422 477378.4713
 3248.297672 -7928.683058 477387.1132
 1106.854172 -8197.059184 477392.3485
 -1106.854139 -8197.059316 477392.3485
 -3248.297668 -7928.682953 477387.1132
 -5529.403796 -7147.873474 477378.4713
 -6822.551948 -6822.551967 477366.5016
 0 0 -0
 0 0 0
 0 0 0
 0 0 0
 2274.959914 -9199.147441 477369.9525
 882.602001 -9266.175903 477373.261
 -882.6019799 -9266.17586 477373.261
 -2274.959887 -9199.147467 477369.9525
 0 0 -0
 0 0 -0
 0 0 -0
 0 0 0
 0 0 0
 0 0 0
 1646.034812 6674.339607 477414.5107
 638.4970632 6720.807444 477416.2695
 -638.4970462 6720.807474 477416.2695
 -1646.034788 6674.339588 477414.5107
 0 0 -0
 0 0 -0
 0 0 -0
 0 0 0
 4951.284998 4951.284969 477412.6526
 4009.357984 5182.156202 477419.0419
 2352.443453 5746.761507 477423.6191
 801.1342202 5939.942389 477426.3782
 -801.1341911 5939.942291 477426.3782
 -2352.443455 5746.761586 477423.6191
 -4009.357948 5182.156162 477419.0419
 -4951.284986 4951.284983 477412.6526
 0 0 -0
 0 0 0
 5182.156244 4009.357941 477419.0419
 4215.653022 4215.653006 477426.7775
 2663.722919 4498.019102 477435.3817
 910.5442286 4643.417444 477440.5522
 -910.5442267 4643.417614 477440.5522
 -2663.722856 4498.018955 477435.3817
 -4215.653049 4215.653107 477426.7775
 -5182.1562 4009.357898 477419.0419
 0 0 -0
 6674.339644 1646.034774 477414.5107
 5746.76153 2352.443434 477423.6191
 4498.019145 2663.722872 477435.3817
 2856.037666 2856.037625 477446.9158
 978.3200669 2950.244966 477453.8828
 -978.320022 2950.244726 477453.8828
 -2856.037711 2856.037835 477446.9158
 -4498.019051 2663.722714 477435.3817
 -5746.761564 2352.443524 477423.6191
 -6674.33961 1646.034752 477414.5107
 6720.807476 638.4970342 477416.2695
 5939.942423 801.1341779 477426.3782
 4643.417491 910.5441908 477440.5522
 2950.244953 978.3200721 477453.8828
 1011.115118 1011.114994 477461.8588
 -1011.115128 1011.115285 477461.8588
 -2950.244857 978.319815 477453.8828
 -4643.417563 910.5443873 477440.5522
 -5939.942334 801.1340589 477426.3782
 -6720.807482 638.4970719 477416.2695
 6720.807506 -638.4970809 477416.2695
 5939.94234 -801.1342289 477426.3782
 4643.417605 -910.5442327 477440.5522
 2950.244847 -978.3201288 477453.8828
 1011.115181 -1011.115032 477461.8588
 -1011.115131 -1011.115343 477461.8588
 -2950.244905 -978.3198545 477453.8828
 -4643.417494 -910.544441 477440.5522
 -5939.942391 -801.1341035 477426.3782
 -6720.807461 -638.4971203 477416.2695
 6674.339627 -1646.034823 477414.5107
 5746.761595 -2352.443474 477423.6191
 4498.019052 -2663.722935 477435.3817
 2856.037757 -2856.03765 477446.9158
 978.3200123 -2950.24504 477453.8828
 -978.3200182 -2950.244748 477453.8828
 -2856.037672 -2856.037905 477446.9158
 -4498.019108 -2663.722748 477435.3817
 -5746.761521 -2352.443579 477423.6191
 -6674.339622 -1646.034798 477414.5107
 0 0 0
 5182.156215 -4009.357995 477419.0419
 4215.653082 -4215.653037 477426.7775
 2663.722856 -4498.019176 477435.3817
 910.544269 -4643.41746 477440.5522
 -910.5442311 -4643.417694 477440.5522
 -2663.722881 -4498.018978 477435.3817
 -4215.653015 -4215.653171 477426.7775
 -5182.15622 -4009.35794 477419.0419
 0 0 -0
 0 0 0
 4951.285009 -4951.285014 477412.6526
 4009.357962 -5182.156258 477419.0419
 2352.443486 -5746.761536 477423.6191
 801.1341971 -5939.942462 477426.3782
 -801.1341874 -5939.942314 477426.3782
 -2352.443444 -5746.761653 477423.6191
 -4009.35796 -5182.156201 477419.0419
 -4951.284981 -4951.285033 477412.6526
 0 0 -0
 0 0 0
 0 0 0
 0 0 0
 1646.034805 -6674.339661 477414.5107
 638.4970702 -6720.807484 477416.2695
 -638.4970481 -6720.807531 477416.2695
 -1646.03479 -6674.339632 477414.5107
 0 0 -0
 0 0 -0
 0 0 -0
 0 0 0
 0 0 0
 0 0 0
 1151.817995 4678.770514 477439.6859
 446.7104412 4709.990005 477440.5594
 -446.710423 4709.989973 477440.5594
 -1151.817985 4678.770534 477439.6859
 0 0 -0
 0 0 -0
 0 0 -0
 0 0 0
 3471.67704 3471.677007 477438.7565
 2808.904664 3630.176721 477441.937
 1646.416009 4024.320834 477444.2014
 560.4015984 4158.382604 477445.5624
 -560.4015935 4158.382708 477445.5624
 -1646.415969 4024.32075 477444.2014
 -2808.904667 3630.176764 477441.937
 -3471.677016 3471.676991 477438.7565
 0 0 -0
 0 0 0
 3630.176747 2808.904639 477441.937
 2950.871338 2950.871299 477445.7624
 1863.131496 3146.793431 477449.995
 636.6177037 3247.60711 477452.5307
 -636.6176687 3247.606929 477452.5307
 -1863.131529 3146.793586 477449.995
 -2950.871272 2950.871191 477445.7624
 -3630.176758 2808.904684 477441.937
 0 0 -0
 4678.770545 1151.817967 477439.6859
 4024.320868 1646.41597 477444.2014
 3146.793467 1863.131464 477449.995
 1996.750778 1996.750775 477455.6495
 683.7628065 2062.18216 477459.0571
 -683.7628188 2062.182413 477459.0571
 -1996.750692 1996.750553 477455.6495
 -3146.793534 1863.13163 477449.995
 -4024.320794 1646.415875 477444.2014
 -4678.770545 1151.81799 477439.6859
 4709.990035 446.7104087 477440.5594
 4158.382646 560.4015655 477445.5624
 3247.607108 636.6176948 477452.5307
 2062.182265 683.7627092 477459.0571
 706.5744414 706.574533 477462.9544
 -706.5743932 706.5742273 477462.9544
 -2062.182334 683.7629798 477459.0571
 -3247.606992 636.6174881 477452.5307
 -4158.382707 560.4016908 477445.5624
 -4709.989992 446.710369 477440.5594
 4709.990011 -446.7104568 477440.5594
 4158.382712 -560.4016095 477445.5624
 3247.607025 -636.6177485 477452.5307
 2062.182327 -683.7627479 477459.0571
 706.574434 -706.5745911 477462.9544
 -706.5744514 -706.5742646 477462.9544
 -2062.182227 -683.763036 477459.0571
 -3247.60711 -636.6175295 477452.5307
 -4158.38262 -560.4017412 477445.5624
 -4709.990023 -446.7104152 477440.5594
 4678.770559 -1151.818012 477439.6859
 4024.320818 -1646.416025 477444.2014
 3146.793535 -1863.131496 477449.995
 1996.750726 -1996.750846 477455.6495
 683.7628121 -2062.182181 477459.0571
 -683.7627686 -2062.182487 477459.0571
 -1996.750783 -1996.750579 477455.6495
 -3146.793437 -1863.131692 477449.995
 -4024.320862 -1646.415915 477444.2014
 -4678.770528 -1151.818038 477439.6859
 0 0 0
 3630.17677 -2808.90468 477441.937
 2950.871297 -2950.871363 477445.7624
 1863.13153 -3146.793452 477449.995
 636.617701 -3247.60719 477452.5307
 -636.6177056 -3247.606944 477452.5307
 -1863.131466 -3146.79366 477449.995
 -2950.871334 -2950.871223 477445.7624
 -3630.176728 -2808.904737 477441.937
 0 0 -0
 0 0 0
 3471.677034 -3471.677057 477438.7565
 2808.904679 -3630.17676 477441.937
 1646.415993 -4024.320901 477444.2014
 560.4015988 -4158.382627 477445.5624
 -560.4015728 -4158.382781 477445.5624
 -1646.416002 -4024.320779 477444.2014
 -2808.904645 -3630.176819 477441.937
 -3471.677028 -3471.677036 477438.7565
 0 0 -0
 0 0 0
 0 0 0
 0 0 0
 1151.817999 -4678.770557 477439.6859
 446.7104416 -4709.990062 477440.5594
 -446.7104293 -4709.990012 477440.5594
 -1151.817978 -4678.770587 477439.6859
 0 0 -0
 0 0 -0
 0 0 -0
 0 0 0
 0 0 0
 0 0 0
 756.646196 3077.02151 477453.4854
 293.4044806 3096.844011 477453.8666
 -293.4044727 3096.844043 477453.8666
 -756.6461798 3077.02149 477453.4854
 0 0 -0
 0 0 -0
 0 0 -0
 0 0 0
 2283.587495 2283.587468 477453.0781
 1846.367846 2386.042131 477454.468
 1081.398377 2644.263379 477455.4532
 367.9277882 2731.61065 477456.0443
 -367.9277658 2731.610545 477456.0443
 -1081.398392 2644.263463 477455.4532
 -1846.367815 2386.042088 477454.468
 -2283.587493 2283.587483 477453.0781
 0 0 -0
 0 0 0
 2386.042161 1846.367814 477454.468
 1938.199879 1938.199849 477456.1321
 1222.886024 2065.736739 477457.9652
 417.6870466 2131.265454 477459.0606
 -417.6870566 2131.265636 477459.0606
 -1222.885962 2065.736583 477457.9652
 -1938.199923 1938.199957 477456.1321
 -2386.042122 1846.367769 477454.468
 0 0 -0
 3077.021539 756.6461666 477453.4854
 2644.263412 1081.398347 477455.4532
 2065.73675 1222.88601 477457.9652
 1309.857627 1309.857549 477460.4066
 448.3809175 1352.385188 477461.8742
 -448.3808767 1352.384934 477461.8742
 -1309.857692 1309.857772 477460.4066
 -2065.736651 1222.885843 477457.9652
 -2644.263464 1081.398443 477455.4532
 -3077.021511 756.6461432 477453.4854
 3096.844045 293.4044497 477453.8666
 2731.610659 367.9277708 477456.0443
 2131.265534 417.6869771 477459.0606
 1352.385119 448.3809789 477461.8742
 463.2136635 463.2134806 477463.5506
 -463.2136873 463.213788 477463.5506
 -1352.385018 448.3807068 477461.8742
 -2131.26563 417.687185 477459.0606
 -2731.610566 367.9276449 477456.0443
 -3096.844063 293.4044897 477453.8666
 3096.844063 -293.4044962 477453.8666
 2731.610613 -367.9278216 477456.0443
 2131.265582 -417.6870184 477459.0606
 1352.385108 -448.3810355 477461.8742
 463.2136099 -463.2135179 477463.5506
 -463.2135638 -463.2138461 477463.5506
 -1352.385187 -448.3807457 477461.8742
 -2131.265463 -417.6872386 477459.0606
 -2731.610684 -367.9276891 477456.0443
 -3096.844023 -293.4045378 477453.8666
 3077.021529 -756.6462153 477453.4854
 2644.263447 -1081.398387 477455.4532
 2065.736713 -1222.886073 477457.9652
 1309.857635 -1309.857573 477460.4066
 448.380966 -1352.385263 477461.8742
 -448.3809849 -1352.384955 477461.8742
 -1309.857548 -1309.857842 477460.4066
 -2065.73679 -1222.885876 477457.9652
 -2644.263373 -1081.398497 477455.4532
 -3077.021535 -756.6461888 477453.4854
 0 0 0
 2386.042148 -1846.367868 477454.468
 1938.1999 -1938.19988 477456.1321
 1222.886023 -2065.736814 477457.9652
 417.6870082 -2131.265469 477459.0606
 -417.686976 -2131.265716 477459.0606
 -1222.886065 -2065.736605 477457.9652
 -1938.199834 -1938.200021 477456.1321
 -2386.042166 -1846.367811 477454.468
 0 0 -0
 0 0 0
 2283.587501 -2283.587513 477453.0781
 1846.367841 -2386.042187 477454.468
 1081.398374 -2644.263407 477455.4532
 367.9278129 -2731.610723 477456.0443
 -367.9278133 -2731.610568 477456.0443
 -1081.398337 -2644.263529 477455.4532
 -1846.36785 -2386.042127 477454.468
 -2283.58748 -2283.587533 477453.0781
 0 0 -0
 0 0 0
 0 0 0
 0 0 0
 756.646198 -3077.021564 477453.4854
 293.4044724 -3096.84405 477453.8666
 -293.4044584 -3096.8441 477453.8666
 -756.6461925 -3077.021533 477453.4854
 0 0 -0
 0 0 -0
 0 0 -0
 0 0 0
 0 0 0
 0 0 0
 428.4071453 1743.320157 477460.6252
 166.1036472 1754.274835 477460.7484
 -166.1036373 1754.274803 477460.7484
 -428.4071443 1743.320177 477460.6252
 0 0 -0
 0 0 -0
 0 0 -0
 0 0 0
 1293.958893 1293.958866 477460.4933
 1045.711449 1351.302283 477460.9427
 612.1468671 1497.186045 477461.2602
 208.2127182 1546.330596 477461.4506
 -208.2127234 1546.330699 477461.4506
 -612.1468332 1497.185962 477461.2602
 -1045.711464 1351.302325 477460.9427
 -1293.958877 1293.958851 477460.4933
 0 0 -0
 0 0 0
 1351.302313 1045.711421 477460.9427
 1097.110334 1097.110317 477461.4791