# OOMMF OVF 2.0
#
# Segment count: 1
#
# Begin: Segment
# Begin: Header
#
# Title: Oxs_MinDriver::Magnetization
# Desc: Oxs vector field output
# Desc:  MIF source file: F:/Bogdan/UNIC/2022/Master_degree/Samples/Cylinder0_5000 1.mif
# Desc:  Iteration: 888, State id: 1948
# Desc:  Stage: 3, Stage iteration: 45
# Desc:  Stage simulation time: 0 s
# Desc:  Total simulation time: -2 s
# meshunit: m
# meshtype: rectangular
# xbase: -8.9999999999999995e-09
# ybase: -8.9999999999999995e-09
# zbase: -2.0999999999999999e-08
# xnodes: 10
# ynodes: 10
# znodes: 22
# xstepsize: 2.0000000000000001e-09
# ystepsize: 2.0000000000000001e-09
# zstepsize: 2.0000000000000001e-09
# xmin: -1e-08
# ymin: -1e-08
# zmin: -2.1999999999999998e-08
# xmax: 1e-08
# ymax: 1e-08
# zmax: 2.2000000000000005e-08
# valuedim: 3
# valuelabels: Magnetization_x Magnetization_y Magnetization_z
# valueunits: A/m A/m A/m
#
# End: Header
#
# Begin: Data Text
 0 0 0
 0 0 0
 0 0 0
 8686.259989 32917.9866 476248.7022
 3276.064295 33150.79599 476300.497
 -3276.063211 33150.79599 476300.497
 -8686.258911 32917.9866 476248.7022
 0 0 -0
 0 0 -0
 0 0 -0
 0 0 0
 24437.60706 24437.60276 476211.5898
 19450.56125 25489.80705 476386.2054
 11506.92257 27711.15407 476520.2556
 3891.034827 28324.98141 476607.2037
 -3891.033734 28324.9814 476607.2037
 -11506.92148 27711.15408 476520.2556
 -19450.56016 25489.80705 476386.2054
 -24437.60599 24437.60275 476211.5898
 0 0 -0
 0 0 0
 25489.81139 19450.55688 476386.2054
 20101.39728 20101.39287 476616.9732
 12476.30672 20990.83812 476839.1739
 4222.078196 21389.44224 476965.9706
 -4222.077093 21389.44226 476965.9706
 -12476.30562 20990.8381 476839.1739
 -20101.39619 20101.39288 476616.9732
 -25489.81031 19450.55688 476386.2054
 0 0 -0
 32917.99094 8686.255649 476248.702
 27711.15846 11506.91817 476520.2554
 20990.84252 12476.3023 476839.1738
 13010.29166 13010.28717 477109.3544
 4401.414515 13248.84208 477259.8527
 -4401.413404 13248.84206 477259.8527
 -13010.29056 13010.28719 477109.3544
 -20990.84143 12476.30229 476839.1739
 -27711.15737 11506.91817 476520.2555
 -32917.98986 8686.255646 476248.702
 33150.80033 3276.059916 476300.4967
 28324.98578 3891.030429 476607.2034
 21389.44671 4222.073716 476965.9704
 13248.84653 4401.410062 477259.8526
 4481.380693 4481.37615 477421.9369
 -4481.379577 4481.376177 477421.9369
 -13248.84542 4401.41004 477259.8527
 -21389.44561 4222.073732 476965.9705
 -28324.9847 3891.03042 476607.2035
 -33150.79926 3276.059919 476300.4968
 33150.80034 -3276.06759 476300.4967
 28324.98581 -3891.038167 476607.2034
 21389.44668 -4222.081526 476965.9704
 13248.84657 -4401.417925 477259.8526
 4481.380643 -4481.384044 477421.9368
 -4481.379527 -4481.38407 477421.9368
 -13248.84546 -4401.417903 477259.8526
 -21389.44558 -4222.081542 476965.9704
 -28324.98472 -3891.038158 476607.2034
 -33150.79926 -3276.067591 476300.4967
 32917.99096 -8686.263281 476248.7018
 27711.15845 -11506.92588 476520.2552
 20990.84256 -12476.31008 476839.1736
 13010.29163 -13010.295 477109.3542
 4401.414562 -13248.84994 477259.8525
 -4401.41345 -13248.84991 477259.8525
 -13010.29052 -13010.29502 477109.3542
 -20990.84146 -12476.31007 476839.1737
 -27711.15737 -11506.92589 476520.2553
 -32917.98989 -8686.263277 476248.7019
 0 0 0
 25489.81143 -19450.56457 476386.205
 20101.39729 -20101.4006 476616.9729
 12476.30675 -20990.84588 476839.1736
 4222.078164 -21389.45003 476965.9703
 -4222.077059 -21389.45005 476965.9703
 -12476.30566 -20990.84587 476839.1736
 -20101.3962 -20101.40061 476616.9729
 -25489.81035 -19450.56457 476386.2051
 0 0 -0
 0 0 0
 24437.60714 -24437.61038 476211.5894
 19450.56129 -25489.8147 476386.205
 11506.92257 -27711.16175 476520.2551
 3891.034854 -28324.98911 476607.2032
 -3891.03376 -28324.9891 476607.2032
 -11506.92148 -27711.16176 476520.2551
 -19450.56021 -25489.81469 476386.205
 -24437.60607 -24437.61037 476211.5894
 0 0 -0
 0 0 0
 0 0 0
 0 0 0
 8686.260016 -32917.99423 476248.7017
 3276.064297 -33150.80361 476300.4965
 -3276.063212 -33150.80361 476300.4965
 -8686.258937 -32917.99423 476248.7017
 0 0 -0
 0 0 -0
 0 0 -0
 0 0 0
 0 0 0
 0 0 0
 7300.038343 28526.17702 476555.1783
 2812.543064 28740.61331 476589.9055
 -2812.542021 28740.6133 476589.9055
 -7300.037306 28526.17703 476555.1783
 0 0 -0
 0 0 -0
 0 0 -0
 0 0 0
 21140.87488 21140.8707 476527.0174
 17041.11527 22129.33613 476646.3722
 10057.07767 24357.1501 476736.2538
 3420.857829 25045.85466 476794.3731
 -3420.856778 25045.8547 476794.3731
 -10057.07663 24357.15008 476736.2539
 -17041.11423 22129.33614 476646.3723
 -21140.87384 21140.87068 476527.0174
 0 0 -0
 0 0 0
 22129.34037 17041.111 476646.3722
 17772.98617 17772.98194 476801.9645
 11121.83072 18732.39705 476966.7425
 3779.399158 19183.77477 477063.4866
 -3779.398098 19183.77472 477063.4866
 -11121.82966 18732.39709 476966.7426
 -17772.98512 17772.98191 476801.9646
 -22129.33933 17041.11101 476646.3722
 0 0 -0
 28526.18127 7300.034109 476555.1781
 24357.15433 10057.07343 476736.2537
 18732.40142 11121.82634 476966.7425
 11712.84792 11712.84366 477176.5813
 3978.048086 11980.32441 477297.0964
 -3978.047019 11980.32448 477297.0964
 -11712.84686 11712.8436 477176.5814
 -18732.40037 11121.82638 476966.7425
 -24357.15329 10057.07341 476736.2538
 -28526.18023 7300.034111 476555.1782
 28740.61753 2812.53882 476589.9053
 25045.85899 3420.853493 476794.3729
 19183.77902 3779.394895 477063.4864
 11980.32887 3978.04363 477297.0964
 4067.238732 4067.234457 477429.3523
 -4067.237659 4067.234384 477429.3523
 -11980.3278 3978.043691 477297.0964
 -19183.77796 3779.394851 477063.4865
 -25045.85795 3420.853518 476794.3729
 -28740.6165 2812.538811 476589.9054
 28740.61756 -2812.546304 476589.9052
 25045.85894 -3420.861037 476794.3728
 19183.77911 -3779.402502 477063.4864
 11980.32875 -3978.051295 477297.0963
 4067.238872 -4067.242144 477429.3523
 -4067.237801 -4067.242076 477429.3523
 -11980.32768 -3978.051353 477297.0963
 -19183.77806 -3779.40246 477063.4864
 -25045.85789 -3420.861061 476794.3729
 -28740.61653 -2812.546295 476589.9053
 28526.18129 -7300.041557 476555.178
 24357.15439 -10057.08095 476736.2535
 18732.40135 -11121.83393 476966.7423
 11712.84804 -11712.85129 477176.5812
 3978.047962 -11980.33207 477297.0962
 -3978.046893 -11980.33213 477297.0962
 -11712.84698 -11712.85124 477176.5812
 -18732.40029 -11121.83397 476966.7423
 -24357.15335 -10057.08093 476736.2536
 -28526.18025 -7300.041558 476555.1781
 0 0 0
 22129.34039 -17041.11851 476646.3719
 17772.98625 -17772.98947 476801.9642
 11121.83065 -18732.40463 476966.7422
 3779.399261 -19183.78236 477063.4863
 -3779.398201 -19183.78231 477063.4863
 -11121.82959 -18732.40467 476966.7423
 -17772.98521 -17772.98944 476801.9643
 -22129.33935 -17041.11852 476646.372
 0 0 -0
 0 0 0
 21140.87498 -21140.87814 476527.017
 17041.11529 -22129.34359 476646.3719
 10057.07774 -24357.1576 476736.2535
 3420.857773 -25045.86219 476794.3727
 -3420.856721 -25045.86222 476794.3727
 -10057.07669 -24357.15758 476736.2535
 -17041.11425 -22129.3436 476646.3719
 -21140.87395 -21140.87813 476527.0171
 0 0 -0
 0 0 0
 0 0 0
 0 0 0
 7300.03836 -28526.18449 476555.1778
 2812.543095 -28740.62076 476589.9051
 -2812.542052 -28740.62075 476589.9051
 -7300.037322 -28526.18449 476555.1779
 0 0 -0
 0 0 -0
 0 0 -0
 0 0 0
 0 0 0
 0 0 0
 5835.398201 23224.82303 476863.1114
 2261.533976 23405.44148 476884.6213
 -2261.533003 23405.44149 476884.6213
 -5835.397232 23224.82301 476863.1114
 0 0 -0
 0 0 -0
 0 0 -0
 0 0 0
 17205.4887 17205.48467 476843.5946
 13938.57649 18044.29101 476919.2709
 8213.441335 19970.7466 476975.4501
 2799.280849 20608.42466 477010.826
 -2799.279869 20608.42461 477010.826
 -8213.440359 19970.74664 476975.4501
 -13938.57552 18044.29098 476919.2709
 -17205.48773 17205.48467 476843.5947
 0 0 -0
 0 0 0
 18044.29504 13938.57244 476919.2709
 14624.96941 14624.96526 477015.8194
 9208.70383 15526.6953 477122.6182
 3140.076649 15970.35834 477186.5032
 -3140.075662 15970.35842 477186.5032
 -9208.702844 15526.69523 477122.6182
 -14624.96844 14624.9653 477015.8194
 -18044.29406 13938.57242 476919.2709
 0 0 -0
 23224.82709 5835.39416 476863.1113
 19970.75075 8213.437194 476975.45
 15526.69934 9208.699787 477122.6182
 9787.555364 9787.551094 477263.3224
 3337.823631 10057.77558 477346.3851
 -3337.822635 10057.77548 477346.3851
 -9787.554377 9787.551175 477263.3224
 -15526.69835 9208.69973 477122.6182
 -19970.74977 8213.437221 476975.45
 -23224.82612 5835.394151 476863.1113
 23405.44558 2261.529876 476884.6212
 20608.42871 2799.276794 477010.8259
 15970.36258 3140.072407 477186.5031
 10057.77961 3337.819586 477346.3851
 3428.929479 3428.925143 477439.3744
 -3428.928483 3428.925243 477439.3744
 -10057.77862 3337.819502 477346.3851
 -15970.3616 3140.072467 477186.5032
 -20608.42773 2799.27676 477010.8259
 -23405.44461 2261.529885 476884.6212
 23405.44557 -2261.537083 476884.6211
 20608.42879 -2799.284044 477010.8258
 15970.36246 -3140.079721 477186.5031
 10057.77979 -3337.826934 477346.385
 3428.929282 -3428.932528 477439.3743
 -3428.928281 -3428.932618 477439.3743
 -10057.7788 -3337.826857 477346.385
 -15970.36147 -3140.079775 477186.5031
 -20608.42782 -2799.284012 477010.8259
 -23405.44459 -2261.53709 476884.6212
 23224.82714 -5835.401334 476863.1112
 19970.75071 -8213.444436 476975.4498
 15526.69946 -9208.707065 477122.618
 9787.555221 -9787.558437 477263.3222
 3337.823812 -10057.78291 477346.385
 -3337.82282 -10057.78284 477346.385
 -9787.554225 -9787.5585 477263.3223
 -15526.69848 -9208.707019 477122.618
 -19970.74973 -8213.444458 476975.4499
 -23224.82617 -5835.401324 476863.1112
 0 0 0
 18044.29512 -13938.57968 476919.2706
 14624.96937 -14624.97252 477015.8192
 9208.703963 -15526.70257 477122.618
 3140.076513 -15970.36566 477186.503
 -3140.075523 -15970.36571 477186.503
 -9208.702983 -15526.70252 477122.618
 -14624.96839 -14624.97255 477015.8192
 -18044.29415 -13938.57966 476919.2707
 0 0 -0
 0 0 0
 17205.4888 -17205.49186 476843.5944
 13938.57658 -18044.2982 476919.2706
 8213.44129 -19970.75385 476975.4498
 2799.280944 -20608.4319 477010.8257
 -2799.279965 -20608.43187 477010.8257
 -8213.44031 -19970.75387 476975.4498
 -13938.57561 -18044.29818 476919.2706
 -17205.48783 -17205.49186 476843.5944
 0 0 -0
 0 0 0
 0 0 0
 0 0 0
 5835.398254 -23224.83025 476863.1111
 2261.533962 -23405.44868 476884.621
 -2261.532987 -23405.44869 476884.621
 -5835.397285 -23224.83024 476863.1111
 0 0 -0
 0 0 -0
 0 0 -0
 0 0 0
 0 0 0
 0 0 0
 4529.913777 18221.56944 477094.6715
 1757.874972 18362.58193 477107.5316
 -1757.874087 18362.58191 477107.5317
 -4529.912896 18221.56945 477094.6715
 0 0 -0
 0 0 -0
 0 0 -0
 0 0 0
 13499.91552 13499.9117 477082.148
 10951.24602 14163.0976 477128.2303
 6443.921829 15708.27581 477162.0241
 2196.764437 16234.97861 477182.8486
 -2196.763547 16234.97867 477182.8486
 -6443.920939 15708.27577 477162.0241
 -10951.24513 14163.09762 477128.2303
 -13499.91463 13499.91169 477082.148
 0 0 -0
 0 0 0
 14163.10148 10951.24212 477128.2303
 11521.34365 11521.33982 477185.9058
 7276.868108 12279.25269 477250.6034
 2486.039955 12662.19551 477289.5973
 -2486.039058 12662.19542 477289.5973
 -7276.867218 12279.25276 477250.6034
 -11521.34275 11521.33977 477185.9058
 -14163.1006 10951.24213 477128.2303
 0 0 -0
 18221.57334 4529.909915 477094.6714
 15708.27965 6443.917987 477162.024
 12279.25669 7276.864108 477250.6034
 7778.535772 7778.531952 477337.2603
 2660.001884 8018.685167 477389.2504
 -2660.000985 8018.685271 477389.2504
 -7778.534868 7778.531865 477337.2604
 -12279.25581 7276.864165 477250.6034
 -15708.27876 6443.917955 477162.0241
 -18221.57246 4529.909918 477094.6714
 18362.5858 1757.871109 477107.5315
 16234.98259 2196.760476 477182.8485
 12662.19934 2486.036119 477289.5972
 8018.689262 2659.9978 477389.2503
 2742.102176 2742.098361 477448.2517
 -2742.101268 2742.098261 477448.2517
 -8018.688368 2659.997885 477389.2503
 -12662.19843 2486.03606 477289.5973
 -16234.98171 2196.760509 477182.8485
 -18362.58491 1757.871099 477107.5315
 18362.58584 -1757.878002 477107.5315
 16234.98252 -2196.767409 477182.8484
 12662.19947 -2486.043087 477289.5972
 8018.689085 -2660.004819 477389.2503
 2742.102387 -2742.105384 477448.2517
 -2742.101486 -2742.105298 477448.2517
 -8018.688176 -2660.004891 477389.2503
 -12662.19859 -2486.043035 477289.5972
 -16234.98163 -2196.767437 477182.8485
 -18362.58496 -1757.877991 477107.5315
 18221.57337 -4529.916782 477094.6713
 15708.27974 -6443.9249 477162.0239
 12279.2566 -7276.871083 477250.6032
 7778.535944 -7778.538924 477337.2602
 2660.001698 -8018.692201 477389.2503
 -2660.000793 -8018.692265 477389.2503
 -7778.535054 -7778.538868 477337.2602
 -12279.2557 -7276.87112 477250.6033
 -15708.27886 -6443.924876 477162.024
 -18221.57248 -4529.916783 477094.6714
 0 0 0
 14163.10152 -10951.24906 477128.2301
 11521.34377 -11521.34674 477185.9056
 7276.868007 -12279.25967 477250.6032
 2486.040111 -12662.20247 477289.5971
 -2486.039217 -12662.20242 477289.5971
 -7276.867107 -12279.25971 477250.6032
 -11521.34289 -11521.34671 477185.9056
 -14163.10063 -10951.24906 477128.2302
 0 0 -0
 0 0 0
 13499.91565 -13499.9186 477082.1478
 10951.24605 -14163.10451 477128.2301
 6443.921929 -15708.28273 477162.0239
 2196.764354 -16234.98557 477182.8484
 -2196.763462 -16234.9856 477182.8484
 -6443.921044 -15708.28271 477162.0239
 -10951.24516 -14163.10451 477128.2301
 -13499.91477 -13499.91858 477082.1478
 0 0 -0
 0 0 0
 0 0 0
 0 0 0
 4529.913801 -18221.57638 477094.6712
 1757.875018 -18362.58884 477107.5314
 -1757.874133 -18362.58883 477107.5314
 -4529.912918 -18221.57638 477094.6713
 0 0 -0
 0 0 -0
 0 0 -0
 0 0 0
 0 0 0
 0 0 0
 3439.150806 13924.88953 477248.5107
 1334.868124 14029.43835 477255.9735
 -1334.867341 14029.43837 477255.9735
 -3439.150026 13924.88952 477248.5107
 0 0 -0
 0 0 -0
 0 0 -0
 0 0 0
 10318.59288 10318.58925 477240.9503
 8369.384997 10819.90052 477268.0111
 4917.535049 12008.10914 477287.6433
 1675.831226 12416.83068 477299.5759
 -1675.830438 12416.83062 477299.576
 -4917.534265 12008.10918 477287.6433
 -8369.384208 10819.9005 477268.0111
 -10318.5921 10318.58925 477240.9503
 0 0 -0
 0 0 0
 10819.90415 8369.38135 477268.0111
 8810.966775 8810.963049 477301.3776
 5570.570828 9405.360133 477338.8516
 1904.484865 9709.704724 477361.4625
 -1904.484076 9709.704804 477361.4625
 -5570.570033 9405.360067 477338.8516
 -8810.965994 8810.963085 477301.3776
 -10819.90337 8369.381329 477268.0111
 0 0 -0
 13924.89321 3439.147169 477248.5106
 12008.11287 4917.531337 477287.6433
 9405.363764 5570.567191 477338.8516
 5971.20348 5971.199666 477389.3179
 2044.773067 6165.841125 477419.8075
 -2044.772269 6165.841037 477419.8075
 -5971.202695 5971.199738 477389.3179
 -9405.362964 5570.567141 477338.8516
 -12008.11209 4917.531359 477287.6433
 -13924.89242 3439.14716 477248.5107
 14029.44207 1334.864439 477255.9734
 12416.83433 1675.827571 477299.5759
 9709.708536 1904.481083 477361.4624
 6165.844747 2044.769432 477419.8075
 2112.004208 2112.000344 477454.6577
 -2112.003414 2112.000422 477454.6577
 -6165.843941 2044.769367 477419.8075
 -9709.707757 1904.481127 477361.4624
 -12416.83353 1675.827546 477299.5759
 -14029.44129 1334.864445 477255.9735
 14029.44207 -1334.871023 477255.9734
 12416.8344 -1675.834179 477299.5758
 9709.708439 -1904.487737 477361.4624
 6165.844896 -2044.776097 477419.8074
 2112.004037 -2112.007046 477454.6577
 -2112.003235 -2112.007103 477454.6577
 -6165.844111 -2044.776048 477419.8075
 -9709.707635 -1904.48777 477361.4624
 -12416.83362 -1675.834158 477299.5759
 -14029.44128 -1334.871027 477255.9734
 13924.89327 -3439.153727 477248.5106
 12008.11285 -4917.537954 477287.6432
 9405.36388 -5570.573812 477338.8515
 5971.203366 -5971.206358 477389.3178
 2044.773226 -6165.847776 477419.8074
 -2044.772435 -6165.84774 477419.8074
 -5971.202562 -5971.206387 477389.3178
 -9405.363102 -5570.573788 477338.8515
 -12008.11206 -4917.537963 477287.6432
 -13924.89248 -3439.153719 477248.5106
 0 0 0
 10819.90425 -8369.387968 477268.011
 8810.966762 -8810.969696 477301.3775
 5570.570952 -9405.36675 477338.8515
 1904.484753 -9709.711418 477361.4624
 -1904.483958 -9709.711435 477361.4624
 -5570.570169 -9405.366732 477338.8515
 -8810.965967 -8810.969703 477301.3775
 -10819.90347 -8369.387956 477268.011
 0 0 -0
 0 0 0
 10318.593 -10318.59586 477240.9502
 8369.385099 -10819.90711 477268.011
 4917.535025 -12008.11579 477287.6431
 1675.831312 -12416.83729 477299.5758
 -1675.830526 -12416.83728 477299.5758
 -4917.534235 -12008.11579 477287.6432
 -8369.384314 -10819.9071 477268.011
 -10318.59222 -10318.59585 477240.9502
 0 0 -0
 0 0 0
 0 0 0
 0 0 0
 3439.150866 -13924.89617 477248.5105
 1334.868118 -14029.44499 477255.9733
 -1334.867333 -14029.44499 477255.9734
 -3439.150086 -13924.89617 477248.5105
 0 0 -0
 0 0 -0
 0 0 -0
 0 0 0
 0 0 0
 0 0 0
 2558.847311 10404.92857 477343.7556
 993.1193572 10479.83669 477347.9423
 -993.1186843 10479.83667 477347.9423
 -2558.846642 10404.92858 477343.7557
 0 0 -0
 0 0 -0
 0 0 -0
 0 0 0
 7711.8905 7711.887074 477339.4231
 6250.820655 8079.390575 477354.713
 3667.637778 8966.844633 477365.7041
 1249.198546 9271.960324 477372.3301
 -1249.197872 9271.960363 477372.3301
 -3667.6371 8966.8446 477365.7041
 -6250.819982 8079.390582 477354.713
 -7711.889826 7711.887059 477339.4231
 0 0 -0
 0 0 0
 8079.394041 6250.81718 477354.7129
 6578.416411 6578.41295 477373.3552
 4158.603326 7024.32178 477394.2147
 1421.810787 7253.882109 477406.7772
 -1421.810106 7253.882051 477406.7772
 -4158.602655 7024.321824 477394.2147
 -6578.415728 6578.412919 477373.3552
 -8079.393372 6250.817184 477354.713
 0 0 -0
 10404.93208 2558.84386 477343.7556
 8966.848107 3667.634308 477365.704
 7024.325321 4158.599804 477394.2147
 4461.969549 4461.966075 477422.3005
 1528.621231 4610.365174 477439.2937
 -1528.620553 4610.365231 477439.2937
 -4461.968859 4461.966027 477422.3005
 -7024.324655 4158.599832 477394.2147
 -8966.847423 3667.634291 477365.704
 -10404.93141 2558.843859 477343.7556
 10479.84019 993.1158814 477347.9422
 9271.963869 1249.195044 477372.33
 7253.88558 1421.807297 477406.7772
 4610.368761 1528.617666 477439.2937
 1580.197283 1580.193807 477458.7702
 -1580.196596 1580.193764 477458.7702
 -4610.368092 1528.617701 477439.2937
 -7253.884886 1421.807273 477406.7772
 -9271.963204 1249.195056 477372.3301
 -10479.83951 993.115877 477347.9423
 10479.84021 -993.1221823 477347.9422
 9271.963855 -1249.201374 477372.33
 7253.885636 -1421.813642 477406.7772
 4610.368697 -1528.624053 477439.2936
 1580.197372 -1580.200183 477458.7702
 -1580.196694 -1580.200162 477458.7702
 -4610.368003 -1528.624069 477439.2936
 -7253.884973 -1421.813629 477406.7772
 -9271.963167 -1249.201379 477372.33
 -10479.83954 -993.1221787 477347.9422
 10404.93212 -2558.850143 477343.7556
 8966.848165 -3667.640622 477365.704
 7024.325309 -4158.606175 477394.2146
 4461.969627 -4461.972417 477422.3004
 1528.621159 -4610.371587 477439.2936
 -1528.620473 -4610.371587 477439.2936
 -4461.968958 -4461.972415 477422.3004
 -7024.324617 -4158.606173 477394.2146
 -8966.847499 -3667.640619 477365.704
 -10404.93144 -2558.850139 477343.7556
 0 0 0
 8079.394108 -6250.823536 477354.7129
 6578.416495 -6578.419274 477373.3551
 4158.603309 -7024.328176 477394.2146
 1421.810856 -7253.888445 477406.7771
 -1421.81018 -7253.888455 477406.7771
 -4158.602623 -7024.328166 477394.2146
 -6578.415827 -6578.419275 477373.3551
 -8079.393431 -6250.823528 477354.7129
 0 0 -0
 0 0 0
 7711.890638 -7711.893401 477339.423
 6250.820722 -8079.396912 477354.7129
 3667.637842 -8966.850968 477365.704
 1249.198523 -9271.966716 477372.33
 -1249.197845 -9271.966704 477372.33
 -3667.637171 -8966.850973 477365.704
 -6250.820043 -8079.396902 477354.7129
 -7711.889966 -7711.89339 477339.423
 0 0 -0
 0 0 0
 0 0 0
 0 0 0
 2558.847353 -10404.93496 477343.7555
 993.1193872 -10479.84304 477347.9422
 -993.1187146 -10479.84305 477347.9422
 -2558.846681 -10404.93495 477343.7555
 0 0 -0
 0 0 -0
 0 0 -0
 0 0 0
 0 0 0
 0 0 0
 1860.291638 7586.126759 477400.1061
 721.8969824 7638.371952 477402.3517
 -721.8964273 7638.371959 477402.3517
 -1860.291084 7586.126751 477400.1061
 0 0 -0
 0 0 -0
 0 0 -0
 0 0 0
 5623.804939 5623.801685 477397.7555
 4554.574986 5886.139862 477405.9913
 2669.086443 6531.18996 477411.8671
 908.5687148 6751.962495 477415.3923
 -908.5681557 6751.962473 477415.3923
 -2669.08589 6531.189973 477411.8671
 -4554.574425 5886.13985 477405.9913
 -5623.804384 5623.801677 477397.7555
 0 0 -0
 0 0 0
 5886.143149 4554.571685 477405.9913
 4789.718431 4789.715141 477415.9492
 3026.015187 5112.848008 477427.0345
 1034.280624 5279.404959 477433.6911
 -1034.280067 5279.404987 477433.6911
 -3026.01462 5112.847984 477427.0345
 -4789.717881 4789.715149 477415.9492
 -5886.142589 4554.571676 477405.9913
 0 0 -0
 7586.130092 1860.288358 477400.106
 6531.193278 2669.083161 477411.8671
 5112.851346 3026.011841 477427.0345
 3246.74794 3246.744628 477441.9217
 1112.204027 3354.936657 477450.9176
 -1112.203461 3354.936634 477450.9176
 -3246.74739 3246.744645 477441.9217
 -5112.850773 3026.01183 477427.0345
 -6531.19273 2669.083162 477411.8671
 -7586.129529 1860.288354 477400.1061
 7638.375291 721.8936907 477402.3517
 6751.965836 908.565371 477415.3923
 5279.408296 1034.277331 477433.6911
 3354.940015 1112.200652 477450.9176
 1149.925644 1149.922314 477461.2305
 -1149.925086 1149.922321 477461.2305
 -3354.939439 1112.200647 477450.9176
 -5279.407753 1034.277333 477433.6911
 -6751.965264 908.5653707 477415.3923
 -7638.374738 721.8936894 477402.3517
 7638.375317 -721.8997599 477402.3517
 6751.96583 -908.5714551 477415.3922
 5279.408336 -1034.283449 477433.6911
 3354.939987 -1112.206771 477450.9176
 1149.925675 -1149.928463 477461.2305
 -1149.925106 -1149.92845 477461.2305
 -3354.93944 -1112.206782 477450.9176
 -5279.407758 -1034.28344 477433.6911
 -6751.965284 -908.5714595 477415.3923
 -7638.374754 -721.8997565 477402.3517
 7586.130137 -1860.294405 477400.106
 6531.193334 -2669.08926 477411.867
 5112.851351 -3026.017934 477427.0345
 3246.747988 -3246.750781 477441.9216
 1112.204006 -3354.942767 477450.9175
 -1112.203449 -3354.942794 477450.9175
 -3246.747414 -3246.750756 477441.9216
 -5112.850806 -3026.017949 477427.0345
 -6531.192764 -2669.089249 477411.867
 -7586.12958 -1860.294403 477400.106
 0 0 0
 5886.143223 -4554.577794 477405.9912
 4789.718507 -4789.721273 477415.9491
 3026.015194 -5112.854105 477427.0345
 1034.280657 -5279.411126 477433.6911
 -1034.280093 -5279.411094 477433.6911
 -3026.014643 -5112.854129 477427.0345
 -4789.717939 -4789.721253 477415.9491
 -5886.142672 -4554.577794 477405.9912
 0 0 -0
 0 0 0
 5623.805078 -5623.807791 477397.7554
 4554.575061 -5886.14595 477405.9912
 2669.086497 -6531.196111 477411.867
 908.5687142 -6751.968606 477415.3922
 -908.5681581 -6751.96863 477415.3922
 -2669.085935 -6531.19609 477411.867
 -4554.574506 -5886.145952 477405.9912
 -5623.80452 -5623.807779 477397.7554
 0 0 -0
 0 0 0
 0 0 0
 0 0 0
 1860.291684 -7586.132911 477400.106
 721.8970062 -7638.378101 477402.3516
 -721.8964495 -7638.378092 477402.3516
 -1860.291131 -7586.132912 477400.106
 0 0 -0
 0 0 -0
 0 0 -0
 0 0 0
 0 0 0
 0 0 0
 1306.621271 5338.551334 477432.3658
 506.9625433 5373.847913 477433.4886
 -506.9621085 5373.84791 477433.4886
 -1306.620839 5338.551332 477432.3658
 0 0 -0
 0 0 -0
 0 0 -0
 0 0 0
 3958.32164 3958.318522 477431.1832
 3203.247391 4139.342437 477435.3112
 1875.277753 4591.585821 477438.2389
 638.023814 4745.501153 477439.9904
 -638.0233796 4745.501157 477439.9904
 -1875.277314 4591.585816 477438.2389
 -3203.246957 4139.342433 477435.3112
 -3958.321203 3958.318514 477431.1832
 0 0 -0
 0 0 0
 4139.345555 3203.244268 477435.3112
 3365.871707 3365.868504 477440.2718
 2124.888634 3591.100037 477445.7667
 725.9874247 3707.10557 477449.0566
 -725.9869841 3707.105566 477449.0566
 -2124.888204 3591.100037 477445.7667
 -3365.871262 3365.868502 477440.2718
 -4139.345124 3203.244263 477435.3112
 0 0 -0
 5338.554513 1306.618156 477432.3658
 4591.589029 1875.274552 477438.2389
 3591.103154 2124.885541 477445.7667
 2278.933169 2278.9299 477453.1226
 780.4264086 2354.397702 477457.5573
 -780.4259739 2354.397697 477457.5573
 -2278.932719 2278.929904 477453.1226
 -3591.102729 2124.885534 477445.7667
 -4591.588582 1875.274555 477438.2389
 -5338.554077 1306.618152 477432.3658
 5373.851118 506.9593689 477433.4886
 4745.504311 638.0207112 477439.9904
 3707.108822 725.9841537 477449.0565
 2354.400814 780.4233235 477457.5573
 806.773598 806.7703066 477462.6368
 -806.7731527 806.7703248 477462.6368
 -2354.400388 780.4233068 477457.5573
 -3707.108367 725.9841668 477449.0565
 -4745.503887 638.0207021 477439.9904
 -5373.850676 506.959371 477433.4886
 5373.851115 -506.9652605 477433.4886
 4745.504395 -638.0266244 477439.9904
 3707.108719 -725.9900784 477449.0565
 2354.400963 -780.4292752 477457.5573
 806.7734465 -806.7762523 477462.6368
 -806.7730122 -806.7762845 477462.6368
 -2354.400509 -780.4292469 477457.5573
 -3707.108298 -725.9900985 477449.0565
 -4745.503944 -638.0266111 477439.9904
 -5373.850682 -506.965263 477433.4886
 5338.554576 -1306.624032 477432.3657
 4591.589014 -1875.280459 477438.2389
 3591.103283 -2124.891487 477445.7667
 2278.933061 -2278.935829 477453.1225
 780.4265534 -2354.403676 477457.5573
 -780.4261088 -2354.403634 477457.5573
 -2278.932635 -2278.935862 477453.1225
 -3591.10283 -2124.891461 477445.7667
 -4591.588587 -1875.280469 477438.2389
 -5338.554135 -1306.624026 477432.3658
 0 0 0
 4139.345667 -3203.250216 477435.3111
 3365.8717 -3365.874427 477440.2718
 2124.888763 -3591.106008 477445.7667
 725.9873266 -3707.111504 477449.0565
 -725.9868922 -3707.111543 477449.0565
 -2124.888316 -3591.105974 477445.7667
 -3365.871273 -3365.874445 477440.2718
 -4139.345226 -3203.250203 477435.3111
 0 0 -0
 0 0 0
 3958.321768 -3958.324452 477431.1832
 3203.247504 -4139.348371 477435.3111
 1875.277739 -4591.591764 477438.2388
 638.023896 -4745.507134 477439.9903
 -638.0234573 -4745.507106 477439.9903
 -1875.277307 -4591.591783 477438.2388
 -3203.247063 -4139.348356 477435.3111
 -3958.321334 -3958.324447 477431.1832
 0 0 -0
 0 0 0
 0 0 0
 0 0 0
 1306.621335 -5338.557326 477432.3657
 506.9625411 -5373.853879 477433.4885
 -506.9621066 -5373.853887 477433.4885
 -1306.620901 -5338.557318 477432.3657
 0 0 -0
 0 0 -0
 0 0 -0
 0 0 0
 0 0 0
 0 0 0
 860.6868162 3520.953538 477450.2418
 333.8961626 3543.467555 477450.7343
 -333.8958521 3543.467553 477450.7343
 -860.6865059 3520.953538 477450.2418
 0 0 -0
 0 0 -0
 0 0 -0
 0 0 0
 2611.021809 2611.018824 477449.7214
 2111.605508 2728.505739 477451.5344
 1235.252368 3025.764 477452.8146
 420.0956291 3126.412217 477453.5793
 -420.0953162 3126.412221 477453.5793
 -1235.252059 3025.763993 477452.8146
 -2111.605193 2728.505738 477451.5344
 -2611.021498 2611.018817 477449.7214
 0 0 -0
 0 0 0
 2728.508789 2111.602446 477451.5344
 2217.225577 2217.222614 477453.7037
 1398.801315 2364.381458 477456.0968
 477.732331 2440.069532 477457.526
 -477.7320202 2440.06952 477457.526
 -1398.800997 2364.381467 477456.0968
 -2217.22527 2217.222603 477453.7037
 -2728.508475 2111.602447 477451.5344
 0 0 -0
 3520.956624 860.6837869 477450.2418
 3025.767005 1235.249403 477452.8146
 2364.384617 1398.798151 477456.0968
 1499.441178 1499.438253 477459.2911
 513.3076152 1548.673098 477461.2125
 -513.3072977 1548.673118 477461.2125
 -1499.440873 1499.438235 477459.2911
 -2364.384293 1398.798164 477456.0968
 -3025.7667 1235.249392 477452.8146
 -3520.956308 860.6837874 477450.2418
 3543.470615 333.893156 477450.7342
 3126.415356 420.0924905 477453.5793
 2440.072501 477.7294095 477457.526
 1548.676311 513.3043854 477461.2125
 530.5023436 530.4994273 477463.4106
 -530.5020337 530.4993978 477463.4106
 -1548.675985 513.3044115 477461.2125
 -2440.072202 477.729389 477457.526
 -3126.415031 420.0925029 477453.5793
 -3543.470306 333.8931514 477450.7342
 3543.470671 -333.8989391 477450.7342
 3126.415257 -420.098288 477453.5793
 2440.072698 -477.735229 477457.526
 1548.676078 -513.3102121 477461.2125
 530.5026105 -530.5052686 477463.4106
 -530.5022906 -530.5052313 477463.4106
 -1548.675777 -513.3102441 477461.2125
 -2440.072368 -477.7352042 477457.526
 -3126.414956 -420.0983018 477453.5793
 -3543.470353 -333.8989334 477450.7342
 3520.956652 -860.689552 477450.2418
 3025.767137 -1235.25521 477452.8146
 2364.384491 -1398.803964 477456.0968
 1499.44141 -1499.444096 477459.2911
 513.3073849 -1548.678928 477461.2125
 -513.3070754 -1548.678968 477461.2125
 -1499.441084 -1499.444062 477459.2911
 -2364.384191 -1398.803987 477456.0968
 -3025.766814 -1235.255195 477452.8146
 -3520.956341 -860.6895527 477450.2418
 0 0 0
 2728.508829 -2111.608276 477451.5343
 2217.225748 -2217.22845 477453.7036
 1398.801188 -2364.387286 477456.0968
 477.7325261 -2440.07539 477457.526
 -477.7322089 -2440.075355 477457.526
 -1398.800884 -2364.387314 477456.0968
 -2217.225426 -2217.228429 477453.7036
 -2728.508522 -2111.60828 477451.5343
 0 0 -0
 0 0 0
 2611.021964 -2611.024651 477449.7213
 2111.605548 -2728.511554 477451.5343
 1235.252502 -3025.769859 477452.8146
 420.0955305 -3126.418063 477453.5792
 -420.0952201 -3126.418086 477453.5792
 -1235.252185 -3025.769839 477452.8146
 -2111.605238 -2728.511559 477451.5343
 -2611.02165 -2611.024642 477449.7213
 0 0 -0
 0 0 0
 0 0 0
 0 0 0
 860.6868447 -3520.95942 477450.2418
 333.8962186 -3543.473425 477450.7342
 -333.8959065 -3543.473417 477450.7342
 -860.6865352 -3520.959422 477450.2418
 0 0 -0
 0 0 -0
 0 0 -0
 0 0 0
 0 0 0
 0 0 0
 488.1790695 1998.555458 477459.5677
 189.365456 2011.038014 477459.7273
 -189.3652702 2011.038015 477459.7273
 -488.1788847 1998.555455 477459.5677
 0 0 -0
 0 0 -0
 0 0 -0
 0 0 0
 1482.212987 1482.210058 477459.3987
 1198.171212 1548.149316 477459.9867
 700.5523375 1716.456421 477460.4008
 238.1827772 1773.226326 477460.6478
 -238.1825915 1773.226318 477460.6478
 -700.55215 1716.456427 477460.4008
 -1198.171026 1548.14931 477459.9867
 -1482.212801 1482.210056 477459.3987
 0 0 -0
 0 0 0
 1548.152218 1198.168307 477459.9867