# OOMMF OVF 2.0
#
# Segment count: 1
#
# Begin: Segment
# Begin: Header
#
# Title: Oxs_MinDriver::Magnetization
# Desc: Oxs vector field output
# Desc:  MIF source file: F:/Bogdan/UNIC/2022/Master_degree/Samples/Cylinder0_5000 1.mif
# Desc:  Iteration: 1038, State id: 2252
# Desc:  Stage: 6, Stage iteration: 44
# Desc:  Stage simulation time: 0 s
# Desc:  Total simulation time: -2 s
# meshunit: m
# meshtype: rectangular
# xbase: -8.9999999999999995e-09
# ybase: -8.9999999999999995e-09
# zbase: -2.0999999999999999e-08
# xnodes: 10
# ynodes: 10
# znodes: 22
# xstepsize: 2.0000000000000001e-09
# ystepsize: 2.0000000000000001e-09
# zstepsize: 2.0000000000000001e-09
# xmin: -1e-08
# ymin: -1e-08
# zmin: -2.1999999999999998e-08
# xmax: 1e-08
# ymax: 1e-08
# zmax: 2.2000000000000005e-08
# valuedim: 3
# valuelabels: Magnetization_x Magnetization_y Magnetization_z
# valueunits: A/m A/m A/m
#
# End: Header
#
# Begin: Data Text
 0 0 0
 0 0 0
 0 0 0
 7716.112766 28870.18929 476527.9059
 2898.453951 29067.37065 476569.5733
 -2898.453944 29067.37065 476569.5733
 -7716.112759 28870.18929 476527.9059
 0 0 -0
 0 0 -0
 0 0 -0
 0 0 0
 21456.08559 21456.08548 476498.8395
 17022.66489 22349.65078 476636.7519
 10085.55098 24209.77152 476743.1593
 3407.378958 24697.49588 476812.6412
 -3407.378951 24697.49588 476812.6412
 -10085.55097 24209.77152 476743.1593
 -17022.66488 22349.65078 476636.7519
 -21456.08558 21456.08548 476498.8395
 0 0 -0
 0 0 0
 22349.6509 17022.66477 476636.7519
 17535.31898 17535.31887 476819.5639
 10852.90238 18241.10872 476991.9787
 3667.057233 18545.4619 477089.6036
 -3667.057226 18545.46191 477089.6036
 -10852.90237 18241.10872 476991.9787
 -17535.31897 17535.31888 476819.5639
 -22349.65089 17022.66477 476636.7519
 0 0 -0
 28870.18941 7716.11265 476527.9059
 24209.77162 10085.55087 476743.1593
 18241.10886 10852.90225 476991.9787
 11262.19124 11262.19115 477198.2789
 3802.44648 11439.93302 477311.7856
 -3802.446472 11439.93302 477311.7856
 -11262.19123 11262.19115 477198.2789
 -18241.10885 10852.90224 476991.9787
 -24209.77161 10085.55087 476743.1593
 -28870.1894 7716.112649 476527.9059
 29067.37076 2898.453841 476569.5733
 24697.49601 3407.378829 476812.6411
 18545.462 3667.05714 477089.6036
 11439.93317 3802.446332 477311.7856
 3861.264783 3861.2647 477432.7728
 -3861.264776 3861.264708 477432.7728
 -11439.93317 3802.446325 477311.7856
 -18545.46199 3667.057145 477089.6036
 -24697.49601 3407.378826 476812.6411
 -29067.37075 2898.453842 476569.5733
 29067.37077 -2898.454063 476569.5733
 24697.49598 -3407.379053 476812.6411
 18545.46205 -3667.057365 477089.6036
 11439.9331 -3802.44656 477311.7856
 3861.264862 -3861.264927 477432.7728
 -3861.264854 -3861.264937 477432.7728
 -11439.9331 -3802.446552 477311.7856
 -18545.46204 -3667.057371 477089.6036
 -24697.49597 -3407.37905 476812.6411
 -29067.37077 -2898.454064 476569.5733
 28870.1894 -7716.11287 476527.9059
 24209.77165 -10085.55109 476743.1593
 18241.10881 -10852.90247 476991.9787
 11262.1913 -11262.19137 477198.2789
 3802.44641 -11439.93325 477311.7855
 -3802.446403 -11439.93324 477311.7855
 -11262.19129 -11262.19138 477198.2789
 -18241.10881 -10852.90246 476991.9787
 -24209.77164 -10085.5511 476743.1593
 -28870.1894 -7716.11287 476527.9059
 0 0 0
 22349.65089 -17022.66499 476636.7519
 17535.31901 -17535.3191 476819.5638
 10852.90234 -18241.10895 476991.9787
 3667.057287 -18545.46213 477089.6036
 -3667.057279 -18545.46214 477089.6036
 -10852.90233 -18241.10894 476991.9787
 -17535.319 -17535.3191 476819.5638
 -22349.65088 -17022.66499 476636.7519
 0 0 -0
 0 0 0
 21456.0856 -21456.0857 476498.8395
 17022.66488 -22349.651 476636.7519
 10085.551 -24209.77174 476743.1593
 3407.378926 -24697.49611 476812.6411
 -3407.378919 -24697.4961 476812.6411
 -10085.55099 -24209.77174 476743.1593
 -17022.66487 -22349.651 476636.7519
 -21456.08559 -21456.0857 476498.8395
 0 0 -0
 0 0 0
 0 0 0
 0 0 0
 7716.11276 -28870.18951 476527.9059
 2898.453962 -29067.37087 476569.5733
 -2898.453955 -29067.37087 476569.5733
 -7716.112753 -28870.18951 476527.9059
 0 0 -0
 0 0 -0
 0 0 -0
 0 0 0
 0 0 0
 0 0 0
 6407.634316 24787.71142 476777.0788
 2464.951836 24972.0247 476804.1456
 -2464.951829 24972.02469 476804.1456
 -6407.63431 24787.71142 476777.0788
 0 0 -0
 0 0 -0
 0 0 -0
 0 0 0
 18385.98358 18385.98347 476755.4746
 14798.81834 19231.91518 476846.9353
 8746.380833 21125.33978 476916.2318
 2974.871193 21697.08934 476961.4846
 -2974.871186 21697.08934 476961.4846
 -8746.380826 21125.33977 476916.2318
 -14798.81833 19231.91519 476846.9353
 -18385.98357 18385.98346 476755.4746
 0 0 -0
 0 0 0
 19231.91528 14798.81824 476846.9353
 15403.86176 15403.86161 476966.7844
 9622.35112 16191.90762 477092.343
 3266.554867 16554.85525 477165.734
 -3266.55486 16554.85524 477165.734
 -9622.351113 16191.90763 477092.343
 -15403.86175 15403.86161 476966.7844
 -19231.91527 14798.81825 476846.9353
 0 0 -0
 24787.71152 6407.634213 476777.0788
 21125.33992 8746.380692 476916.2318
 16191.90768 9622.351062 477092.343
 10096.14961 10096.14942 477250.4655
 3423.790194 10306.27238 477340.4757
 -3423.790187 10306.2724 477340.4757
 -10096.1496 10096.14941 477250.4655
 -16191.90767 9622.351073 477092.343
 -21125.33992 8746.380685 476916.2318
 -24787.71152 6407.634215 476777.0788
 24972.02482 2464.951713 476804.1456
 21697.08941 2974.871118 476961.4846
 16554.85543 3266.554692 477165.734
 10306.27241 3423.790163 477340.4757
 3492.997025 3492.996815 477438.4455
 -3492.997018 3492.996791 477438.4455
 -10306.2724 3423.790184 477340.4757
 -16554.85542 3266.554676 477165.734
 -21697.0894 2974.871128 476961.4846
 -24972.02481 2464.95171 476804.1456
 24972.02479 -2464.951929 476804.1456
 21697.0895 -2974.871335 476961.4845
 16554.85529 -3266.554913 477165.734
 10306.2726 -3423.790381 477340.4757
 3492.996808 -3492.99704 477438.4455
 -3492.996802 -3492.997011 477438.4455
 -10306.27259 -3423.790407 477340.4757
 -16554.85528 -3266.554894 477165.734
 -21697.08949 -2974.871346 476961.4845
 -24972.02479 -2464.951925 476804.1456
 24787.71154 -6407.634428 476777.0788
 21125.33985 -8746.38091 476916.2318
 16191.9078 -9622.351276 477092.343
 10096.14944 -10096.14965 477250.4655
 3423.790386 -10306.2726 477340.4757
 -3423.790378 -10306.27263 477340.4757
 -10096.14944 -10096.14962 477250.4655
 -16191.90779 -9622.351295 477092.343
 -21125.33985 -8746.3809 476916.2318
 -24787.71153 -6407.63443 476777.0788
 0 0 0
 19231.91532 -14798.81846 476846.9353
 15403.86168 -15403.86183 476966.7844
 9622.351246 -16191.90783 477092.343
 3266.554721 -16554.85548 477165.734
 -3266.554715 -16554.85545 477165.734
 -9622.351237 -16191.90785 477092.343
 -15403.86167 -15403.86182 476966.7844
 -19231.91531 -14798.81846 476846.9353
 0 0 -0
 0 0 0
 18385.98357 -18385.98368 476755.4745
 14798.81838 -19231.9154 476846.9353
 8746.380763 -21125.34 476916.2318
 2974.871282 -21697.08955 476961.4845
 -2974.871275 -21697.08957 476961.4845
 -8746.380757 -21125.33999 476916.2318
 -14798.81837 -19231.9154 476846.9353
 -18385.98356 -18385.98368 476755.4745
 0 0 -0
 0 0 0
 0 0 0
 0 0 0
 6407.634334 -24787.71163 476777.0788
 2464.951808 -24972.02491 476804.1456
 -2464.951801 -24972.02491 476804.1456
 -6407.634327 -24787.71164 476777.0788
 0 0 -0
 0 0 -0
 0 0 -0
 0 0 0
 0 0 0
 0 0 0
 5059.900409 19962.14747 477019.6866
 1959.467655 20118.3481 477035.9356
 -1959.467648 20118.34811 477035.9356
 -5059.900403 19962.14747 477019.6866
 0 0 -0
 0 0 -0
 0 0 -0
 0 0 0
 14800.15007 14800.14997 477005.013
 11982.57549 15517.95904 477061.2981
 7072.003423 17153.20959 477103.3698
 2411.097751 17689.23196 477130.1174
 -2411.097744 17689.23195 477130.1174
 -7072.003417 17153.2096 477103.3698
 -11982.57548 15517.95904 477061.2981
 -14800.15006 14800.14997 477005.013
 0 0 -0
 0 0 0
 15517.95917 11982.57536 477061.2981
 12559.73819 12559.73813 477133.5004
 7901.78354 13311.67624 477212.9843
 2693.074235 13677.65544 477260.4534
 -2693.074229 13677.65546 477260.4534
 -7901.783533 13311.67622 477212.9843
 -12559.73818 12559.73814 477133.5004
 -15517.95916 11982.57535 477061.2981
 0 0 -0
 19962.14759 5059.900294 477019.6866
 17153.20966 7072.003356 477103.3698
 13311.67642 7901.783361 477212.9843
 8377.292279 8377.292269 477316.9945
 2854.161742 8596.719339 477378.0697
 -2854.161734 8596.719307 477378.0697
 -8377.292274 8377.292298 477316.9945
 -13311.67642 7901.78334 477212.9843
 -17153.20965 7072.003368 477103.3698
 -19962.14758 5059.900291 477019.6866
 20118.34819 1959.467564 477035.9356
 17689.23213 2411.097595 477130.1174
 13677.65546 2693.074209 477260.4534
 8596.719564 2854.161524 477378.0697
 2927.501398 2927.501415 477446.0501
 -2927.501392 2927.501459 477446.0501
 -8596.719555 2854.161485 477378.0697
 -13677.65545 2693.074238 477260.4534
 -17689.23212 2411.097577 477130.1174
 -20118.34819 1959.467569 477035.9356
 20118.34823 -1959.46777 477035.9356
 17689.232 -2411.097805 477130.1174
 13677.65566 -2693.074416 477260.4534
 8596.719297 -2854.161738 477378.0697
 2927.501698 -2927.501623 477446.0501
 -2927.50169 -2927.501674 477446.0501
 -8596.719293 -2854.161693 477378.0697
 -13677.65565 -2693.07445 477260.4534
 -17689.232 -2411.097784 477130.1174
 -20118.34823 -1959.467777 477035.9356
 19962.14756 -5059.900501 477019.6866
 17153.20976 -7072.003561 477103.3698
 13311.67625 -7901.783576 477212.9843
 8377.292513 -8377.292471 477316.9945
 2854.161476 -8596.71956 477378.0697
 -2854.16147 -8596.719508 477378.0697
 -8377.292504 -8377.292517 477316.9945
 -13311.67625 -7901.783543 477212.9843
 -17153.20975 -7072.003579 477103.3698
 -19962.14756 -5059.900496 477019.6866
 0 0 0
 15517.95912 -11982.57557 477061.2981
 12559.73831 -12559.73833 477133.5004
 7901.783367 -13311.67646 477212.9843
 2693.074438 -13677.65564 477260.4534
 -2693.074431 -13677.65568 477260.4534
 -7901.783362 -13311.67642 477212.9843
 -12559.7383 -12559.73836 477133.5004
 -15517.95912 -11982.57556 477061.2981
 0 0 -0
 0 0 0
 14800.15009 -14800.15017 477005.013
 11982.57544 -15517.95925 477061.2981
 7072.003522 -17153.2098 477103.3698
 2411.097629 -17689.23218 477130.1174
 -2411.097623 -17689.23215 477130.1174
 -7072.003514 -17153.20982 477103.3698
 -11982.57543 -15517.95924 477061.2981
 -14800.15008 -14800.15018 477005.013
 0 0 -0
 0 0 0
 0 0 0
 0 0 0
 5059.900387 -19962.14768 477019.6866
 1959.467694 -20118.34831 477035.9356
 -1959.467687 -20118.34832 477035.9356
 -5059.90038 -19962.14767 477019.6866
 0 0 -0
 0 0 -0
 0 0 -0
 0 0 0
 0 0 0
 0 0 0
 3884.320464 15495.49977 477196.6815
 1506.452158 15617.21019 477206.1448
 -1506.452152 15617.21019 477206.1448
 -3884.320459 15495.49977 477196.6815
 0 0 -0
 0 0 -0
 0 0 -0
 0 0 0
 11489.57248 11489.57238 477187.4378
 9317.962911 12053.98667 477220.859
 5492.230361 13356.66475 477245.5408
 1873.322522 13799.04594 477260.8807
 -1873.322516 13799.04596 477260.8807
 -5492.230355 13356.66473 477245.5408
 -9317.962906 12053.98668 477220.859
 -11489.57248 11489.57238 477187.4378
 0 0 -0
 0 0 0
 12053.98675 9317.96283 477220.859
 9798.173327 9798.173179 477262.8866
 6187.028003 10431.49569 477309.9369
 2113.375289 10749.67116 477338.2967
 -2113.375282 10749.67112 477338.2967
 -6187.027998 10431.49572 477309.9369
 -9798.17332 9798.173159 477262.8866
 -12053.98675 9317.962838 477220.859
 0 0 -0
 15495.49986 3884.320373 477196.6815
 13356.66489 5492.230224 477245.5408
 10431.49572 6187.027967 477309.9369
 6602.24384 6602.243645 477372.6972
 2256.569851 6799.789317 477410.245
 -2256.569846 6799.789368 477410.245
 -6602.243832 6602.2436 477372.6972
 -10431.49572 6187.028001 477309.9369
 -13356.66488 5492.230204 477245.5408
 -15495.49985 3884.320378 477196.6815
 15617.21031 1506.452043 477206.1448
 13799.04599 1873.322464 477260.8807
 10749.67135 2113.375112 477338.2967
 6799.78931 2256.569849 477410.245
 2323.718472 2323.71825 477452.6908
 -2323.718465 2323.718183 477452.6908
 -6799.789307 2256.569908 477410.245
 -10749.67134 2113.375067 477338.2967
 -13799.04598 1873.322491 477260.8807
 -15617.21031 1506.452035 477206.1448
 15617.21027 -1506.45224 477206.1448
 13799.04611 -1873.32266 477260.8807
 10749.67114 -2113.375314 477338.2967
 6799.789585 -2256.570044 477410.245
 2323.718164 -2323.718456 477452.6908
 -2323.718159 -2323.718379 477452.6908
 -6799.789576 -2256.570112 477410.245
 -10749.67114 -2113.375263 477338.2967
 -13799.04611 -1873.322691 477260.8807
 -15617.21027 -1506.452231 477206.1448
 15495.49988 -3884.320568 477196.6815
 13356.66479 -5492.230425 477245.5408
 10431.4959 -6187.028158 477309.9369
 6602.2436 -6602.243855 477372.6972
 2256.570124 -6799.789504 477410.245
 -2256.570117 -6799.789581 477410.245
 -6602.243597 -6602.243789 477372.6972
 -10431.49589 -6187.028207 477309.9369
 -13356.66479 -5492.230398 477245.5408
 -15495.49988 -3884.320574 477196.6815
 0 0 0
 12053.98681 -9317.963024 477220.859
 9798.173207 -9798.173385 477262.8866
 6187.028181 -10431.49588 477309.9369
 2113.375081 -10749.67137 477338.2967
 -2113.375076 -10749.67131 477338.2967
 -6187.028174 -10431.49593 477309.9369
 -9798.173203 -9798.173349 477262.8866
 -12053.9868 -9317.963039 477220.859
 0 0 -0
 0 0 0
 11489.57247 -11489.57258 477187.4377
 9317.962964 -12053.98687 477220.859
 5492.230262 -13356.66496 477245.5408
 1873.322648 -13799.04612 477260.8807
 -1873.322641 -13799.04617 477260.8807
 -5492.230257 -13356.66492 477245.5408
 -9317.962957 -12053.98688 477220.859
 -11489.57246 -11489.57257 477187.4377
 0 0 -0
 0 0 0
 0 0 0
 0 0 0
 3884.32049 -15495.49996 477196.6815
 1506.452119 -15617.21039 477206.1448
 -1506.452113 -15617.21038 477206.1448
 -3884.320484 -15495.49997 477196.6815
 0 0 -0
 0 0 -0
 0 0 -0
 0 0 0
 0 0 0
 0 0 0
 2920.147139 11726.82558 477311.0365
 1132.783675 11816.48745 477316.4136
 -1132.78367 11816.48746 477316.4136
 -2920.147133 11726.82558 477311.0365
 0 0 -0
 0 0 -0
 0 0 -0
 0 0 0
 8697.346152 8697.346062 477305.5454
 7053.313365 9120.558114 477324.7715
 4151.655804 10113.8881 477338.815
 1415.701771 10455.16713 477347.4171
 -1415.701765 10455.1671 477347.4171
 -4151.6558 10113.88812 477338.815
 -7053.313359 9120.558103 477324.7715
 -8697.346147 8697.346066 477305.5454
 0 0 -0
 0 0 0
 9120.558221 7053.313259 477324.7715
 7423.519618 7423.519551 477348.5666
 4693.700076 7918.189148 477375.2641
 1604.756443 8170.674152 477391.3867
 -1604.756438 8170.674202 477391.3867
 -4693.700069 7918.189106 477375.2641
 -7423.519615 7423.51958 477348.5666
 -9120.558215 7053.313246 477324.7715
 0 0 -0
 11726.82569 2920.147039 477311.0365
 10113.88816 4151.655729 477338.815
 7918.189289 4693.699942 477375.2641
 5024.924244 5024.924202 477411.1138
 1720.296134 5185.339078 477432.743
 -1720.296128 5185.339005 477432.7431
 -5024.924241 5024.924267 477411.1138
 -7918.18928 4693.699894 477375.2641
 -10113.88816 4151.655756 477338.815
 -11726.82568 2920.147032 477311.0365
 11816.48753 1132.783587 477316.4136
 10455.16726 1415.701652 477347.417
 8170.674193 1604.756387 477391.3867
 5185.339243 1720.29598 477432.743
 1775.489744 1775.489717 477457.3976
 -1775.48974 1775.489811 477457.3976
 -5185.339234 1720.295897 477432.743
 -8170.674192 1604.75645 477391.3867
 -10455.16725 1415.701614 477347.417
 -11816.48753 1132.783599 477316.4136
 11816.48757 -1132.783772 477316.4136
 10455.16716 -1415.701841 477347.417
 8170.674358 -1604.756571 477391.3867
 5185.339029 -1720.296174 477432.743
 1775.489984 -1775.489901 477457.3976
 -1775.489977 -1775.490005 477457.3976
 -5185.339026 -1720.296081 477432.7431
 -8170.674349 -1604.756641 477391.3867
 -10455.16716 -1415.701799 477347.417
 -11816.48756 -1132.783786 477316.4136
 11726.82567 -2920.147226 477311.0365
 10113.88825 -4151.655911 477338.815
 7918.189149 -4693.700139 477375.2641
 5024.924432 -5024.924378 477411.1138
 1720.295922 -5185.339281 477432.743
 -1720.295918 -5185.339179 477432.743
 -5024.924424 -5024.924468 477411.1138
 -7918.189147 -4693.700073 477375.2641
 -10113.88824 -4151.655948 477338.815
 -11726.82566 -2920.147217 477311.0365
 0 0 0
 9120.558183 -7053.31345 477324.7715
 7423.519715 -7423.519729 477348.5666
 4693.699938 -7918.18935 477375.2641
 1604.756605 -8170.674323 477391.3867
 -1604.756599 -8170.674407 477391.3867
 -4693.699935 -7918.189279 477375.2641
 -7423.519708 -7423.519776 477348.5666
 -9120.558179 -7053.31343 477324.7715
 0 0 -0
 0 0 0
 8697.346169 -8697.346247 477305.5454
 7053.313328 -9120.558305 477324.7715
 4151.655884 -10113.88827 477338.815
 1415.701673 -10455.16733 477347.417
 -1415.701669 -10455.16728 477347.417
 -4151.655877 -10113.88832 477338.815
 -7053.313323 -9120.558284 477324.7715
 -8697.346163 -8697.346254 477305.5454
 0 0 -0
 0 0 0
 0 0 0
 0 0 0
 2920.147121 -11726.82577 477311.0365
 1132.783707 -11816.48763 477316.4136
 -1132.783701 -11816.48765 477316.4136
 -2920.147116 -11726.82576 477311.0365
 0 0 -0
 0 0 -0
 0 0 -0
 0 0 0
 0 0 0
 0 0 0
 2154.541001 8688.489957 477380.0785
 835.7200509 8752.196827 477383.0453
 -835.7200462 8752.196815 477383.0453
 -2154.540997 8688.489964 477380.0785
 0 0 -0
 0 0 -0
 0 0 -0
 0 0 0
 6445.77206 6445.771972 477376.974
 5223.760619 6753.2837 477387.6588
 3070.586149 7489.008156 477395.3891
 1046.521741 7741.865675 477400.0834
 -1046.521737 7741.865713 477400.0834
 -3070.586143 7489.008125 477395.3891
 -5223.760616 6753.283716 477387.6588
 -6445.772056 6445.771966 477376.974
 0 0 -0
 0 0 0
 6753.28379 5223.760528 477387.6588
 5496.414288 5496.414199 477400.7228
 3475.280845 5865.068498 477415.3272
 1188.337301 6054.487921 477424.1325
 -1188.337295 6054.487855 477424.1325
 -3475.280842 5865.068555 477415.3272
 -5496.414281 5496.41416 477400.7228
 -6753.283786 5223.760545 477387.6588
 0 0 -0
 8688.490047 2154.540911 477380.0785
 7489.008249 3070.586064 477395.3891
 5865.068588 3475.280749 477415.3272
 3724.815976 3724.815888 477434.9409
 1275.934067 3846.690278 477446.7994
 -1275.934064 3846.690374 477446.7994
 -3724.815968 3724.815804 477434.9409
 -5865.068587 3475.280811 477415.3272
 -7489.008241 3070.586028 477395.3891
 -8688.490043 2154.540919 477380.0785
 8752.19692 835.7199639 477383.0453
 7741.865761 1046.521642 477400.0834
 6054.488019 1188.337221 477424.1325
 3846.690367 1275.933966 477446.7994
 1318.171978 1318.17189 477460.3608
 -1318.171972 1318.171771 477460.3608
 -3846.690366 1275.934071 477446.7994
 -6054.48801 1188.337141 477424.1325
 -7741.865759 1046.52169 477400.0834
 -8752.196914 835.7199483 477383.0453
 8752.196904 -835.7201405 477383.0453
 7741.865812 -1046.521816 477400.0834
 6054.487936 -1188.337403 477424.1325
 3846.690474 -1275.934139 477446.7994
 1318.171859 -1318.172075 477460.3608
 -1318.171856 -1318.171943 477460.3608
 -3846.690467 -1275.934255 477446.7994
 -6054.487935 -1188.337314 477424.1325
 -7741.865805 -1046.521869 477400.0834
 -8752.1969 -835.7201238 477383.0453
 8688.490058 -2154.541085 477380.0785
 7489.008209 -3070.586245 477395.3891
 5865.068659 -3475.280917 477415.3272
 3724.815883 -3724.816079 477434.9409
 1275.934172 -3846.690442 477446.7994
 -1275.934166 -3846.690568 477446.7994
 -3724.81588 -3724.815969 477434.9409
 -5865.068652 -3475.280998 477415.3272
 -7489.008207 -3070.5862 477395.3891
 -8688.490053 -2154.541096 477380.0785
 0 0 0
 6753.283812 -5223.760702 477387.6588
 5496.414241 -5496.414386 477400.7228
 3475.280915 -5865.068661 477415.3272
 1188.337221 -6054.488117 477424.1325
 -1188.337217 -6054.488015 477424.1325
 -3475.280909 -5865.068748 477415.3272
 -5496.414239 -5496.414327 477400.7228
 -6753.283806 -5223.760726 477387.6588
 0 0 -0
 0 0 0
 6445.772057 -6445.77215 477376.974
 5223.760641 -6753.283872 477387.6588
 3070.586111 -7489.008344 477395.3891
 1046.521789 -7741.86584 477400.0834
 -1046.521784 -7741.865904 477400.0834
 -3070.586107 -7489.008293 477395.3891
 -5223.760636 -6753.283897 477387.6588
 -6445.772053 -6445.772142 477376.974
 0 0 -0
 0 0 0
 0 0 0
 0 0 0
 2154.541012 -8688.490132 477380.0785
 835.7200361 -8752.197009 477383.0453
 -835.7200317 -8752.196988 477383.0453
 -2154.541007 -8688.490145 477380.0785
 0 0 -0
 0 0 -0
 0 0 -0
 0 0 0
 0 0 0
 0 0 0
 1555.625056 6290.177467 477420.0299
 603.3028232 6334.223908 477421.6008
 -603.3028196 6334.223922 477421.6008
 -1555.625052 6290.177458 477420.0299
 0 0 -0
 0 0 -0
 0 0 -0
 0 0 0
 4667.826729 4667.82664 477418.3638
 3779.553292 4885.483315 477424.0446
 2218.945954 5416.254531 477428.1221
 755.8334968 5597.840758 477430.5857
 -755.8334926 5597.840711 477430.5857
 -2218.945951 5416.254568 477428.1221
 -3779.553288 4885.483296 477424.0446
 -4667.826725 4667.826647 477418.3638
 0 0 -0
 0 0 0
 4885.483387 3779.553222 477424.0446
 3973.736447 3973.736328 477430.9271
 2511.043269 4238.98007 477438.5793
 858.3968323 4375.496046 477443.1793
 -858.3968295 4375.496127 477443.1793
 -2511.043262 4238.98 477438.5793
 -3973.736445 3973.736376 477430.9271
 -4885.483382 3779.553202 477424.0446
 0 0 -0
 6290.177547 1555.62498 477420.0299
 5416.254641 2218.945837 477428.1221
 4238.98011 2511.043236 477438.5793
 2691.430174 2691.430021 477448.8284
 921.9149968 2779.770979 477455.018
 -921.9149918 2779.770865 477455.018
 -2691.430173 2691.430122 477448.8284
 -4238.980103 2511.043161 477438.5793
 -5416.254639 2218.94588 477428.1221
 -6290.177543 1555.624969 477420.0299
 6334.224002 603.3027242 477421.6008
 5597.840816 755.8334541 477430.5857
 4375.496181 858.3966791 477443.1793
 2779.770997 921.914993 477455.018
 952.6446748 952.6445033 477462.0993
 -952.6446723 952.644644 477462.0993
 -2779.770989 921.9148685 477455.018
 -4375.496181 858.3967741 477443.1793
 -5597.840809 755.8333965 477430.5857
 -6334.224 603.3027424 477421.6008
 6334.224001 -603.3028906 477421.6008
 5597.840822 -755.8336238 477430.5857
 4375.49617 -858.3968437 477443.1793
 2779.771013 -921.9151668 477455.018
 952.6446538 -952.6446666 477462.0993
 -952.6446489 -952.6448188 477462.0993
 -2779.771012 -921.9150323 477455.018
 -4375.496163 -858.396946 477443.1793
 -5597.840821 -755.8335621 477430.5857
 -6334.223996 -603.30291 477421.6008
 6290.177549 -1555.625147 477420.0299
 5416.254637 -2218.946 477428.1221
 4238.98012 -2511.043414 477438.5793
 2691.43016 -2691.430177 477448.8284
 921.9150155 -2779.771163 477455.018
 -921.9150126 -2779.771019 477455.018
 -2691.430154 -2691.430303 477448.8284
 -4238.980119 -2511.043321 477438.5793
 -5416.254631 -2218.946052 477428.1221
 -6290.177546 -1555.625135 477420.0299
 0 0 0
 4885.483391 -3779.553394 477424.0446
 3973.736442 -3973.736487 477430.9271
 2511.04328 -4238.980253 477438.5793
 858.3968185 -4375.496197 477443.1793
 -858.3968142 -4375.496313 477443.1793
 -2511.043278 -4238.980155 477438.5793
 -3973.736436 -3973.736553 477430.9271
 -4885.483389 -3779.553367 477424.0446
 0 0 -0
 0 0 0
 4667.826732 -4667.826806 477418.3638
 3779.553297 -4885.483488 477424.0446
 2218.945949 -5416.254689 477428.1221
 755.8335057 -5597.840939 477430.5857
 -755.8335023 -5597.840867 477430.5857
 -2218.945944 -5416.254747 477428.1221
 -3779.553294 -4885.483459 477424.0446
 -4667.826728 -4667.826816 477418.3638
 0 0 -0
 0 0 0
 0 0 0
 0 0 0
 1555.625059 -6290.177639 477420.0299
 603.302821 -6334.224072 477421.6008
 -603.3028172 -6334.224096 477421.6008
 -1555.625055 -6290.177625 477420.0299
 0 0 -0
 0 0 -0
 0 0 -0
 0 0 0
 0 0 0
 0 0 0
 1086.79184 4402.033343 477442.4701
 421.3998624 4431.553025 477443.248
 -421.3998593 4431.553008 477443.248
 -1086.791838 4402.033353 477442.4701
 0 0 -0
 0 0 -0
 0 0 -0
 0 0 0
 3267.481658 3267.481587 477441.6388
 2643.43863 3416.568085 477444.4581
 1550.362694 3786.387805 477446.4692
 527.8193641 3912.145581 477447.6807
 -527.8193616 3912.145634 477447.6807
 -1550.36269 3786.387762 477446.4692
 -2643.438628 3416.568106 477444.4581
 -3267.481654 3267.481579 477441.6388
 0 0 -0
 0 0 0
 3416.56819 2643.438523 477444.4581
 2776.773917 2776.773897 477447.8509
 1753.317945 2960.442514 477451.6027
 599.1239062 3054.908041 477453.8511
 -599.1239024 3054.907949 477453.8511
 -1753.317944 2960.442593 477451.6027
 -2776.773912 2776.773843 477447.8509
 -3416.568188 2643.438546 477444.4581
 0 0 -0
 4402.033436 1086.791746 477442.4701
 3786.38784 1550.362668 477446.4692
 2960.442681 1753.317771 477451.6027
 1878.40271 1878.402748 477456.6101
 643.2224209 1939.643351 477459.6269
 -643.222419 1939.643479 477459.6269
 -1878.402704 1878.402636 477456.6101
 -2960.442681 1753.317854 477451.6027
 -3786.387835 1550.36262 477446.4692
 -4402.033434 1086.791758 477442.4701
 4431.55309 421.3998043 477443.248
 3912.145718 527.819212 477447.6807
 3054.908029 599.1239381 477453.8511
 1939.643562 643.222197 477459.6269
 664.558265 664.5583344 477463.075
 -664.5582609 664.5581807 477463.075
 -1939.643562 643.222333 477459.6269
 -3054.908022 599.1238343 477453.8511
 -3912.145718 527.8192748 477447.6807
 -4431.553086 421.3997844 477443.248
 4431.553107 -421.3999642 477443.248
 3912.145664 -527.8193701 477447.6807
 3054.90812 -599.1241018 477453.8511
 1939.64344 -643.2223534 477459.6269
 664.5584045 -664.5585007 477463.075
 -664.5584025 -664.5583368 477463.075
 -1939.643435 -643.2224983 477459.6269
 -3054.90812 -599.1239916 477453.8511
 -3912.145658 -527.8194365 477447.6807
 -4431.553105 -421.3999433 477443.248
 4402.033427 -1086.791905 477442.4701
 3786.387884 -1550.362832 477446.4692
 2960.442604 -1753.317923 477451.6027
 1878.402817 -1878.40292 477456.6101
 643.2222978 -1939.643499 477459.6269
 -643.2222941 -1939.643653 477459.6269
 -1878.402816 -1878.402786 477456.6101
 -2960.442599 -1753.318022 477451.6027
 -3786.387883 -1550.362776 477446.4692
 -4402.033423 -1086.791918 477442.4701
 0 0 0
 3416.56817 -2643.438681 477444.4581
 2776.773972 -2776.774066 477447.8509
 1753.317867 -2960.442662 477451.6027
 599.1240003 -3054.908218 477453.851
 -599.1239979 -3054.908095 477453.8511
 -1753.317863 -2960.442766 477451.6027
 -2776.77397 -2776.773996 477447.8509
 -3416.568166 -2643.43871 477444.4581
 0 0 -0
 0 0 0
 3267.481669 -3267.481749 477441.6388
 2643.438611 -3416.568241 477444.4581
 1550.36274 -3786.387975 477446.4692
 527.8193078 -3912.14573 477447.6807
 -527.8193046 -3912.145807 477447.6807
 -1550.362737 -3786.387915 477446.4692
 -2643.438607 -3416.568271 477444.4581
 -3267.481666 -3267.481738 477441.6388
 0 0 -0
 0 0 0
 0 0 0
 0 0 0
 1086.791831 -4402.033503 477442.4701
 421.3998808 -4431.55319 477443.248
 -421.399878 -4431.553166 477443.248
 -1086.791828 -4402.033518 477442.4701
 0 0 -0
 0 0 -0
 0 0 -0
 0 0 0
 0 0 0
 0 0 0
 713.101966 2891.489507 477454.7121
 276.4565338 2910.19511 477455.0509
 -276.4565318 2910.195128 477455.0509
 -713.1019638 2891.489496 477454.7121
 0 0 -0
 0 0 -0
 0 0 -0
 0 0 0
 2146.690093 2146.690006 477454.3483
 1735.475503 2242.887712 477455.5779
 1017.059898 2484.825825 477456.4509
 346.1099151 2566.63094 477456.976
 -346.1099127 2566.630883 477456.976
 -1017.059897 2484.82587 477456.4509
 -1735.4755 2242.88769 477455.5779
 -2146.690092 2146.690014 477454.3483
 0 0 -0
 0 0 0
 2242.887758 1735.475458 477455.5779
 1821.569628 1821.569474 477457.0505
 1149.353852 1940.934432 477458.6716
 392.5876632 2002.234422 477459.6404
 -392.5876616 2002.234518 477459.6404
 -1149.353849 1940.93435 477458.6716
 -1821.569628 1821.56953 477457.0505
 -2242.887755 1735.475435 477455.5779
 0 0 -0
 2891.489571 713.1019057 477454.7121
 2484.825963 1017.059753 477456.4509
 1940.934402 1149.35389 477458.6716
 1230.635976 1230.635749 477460.8281
 421.2506717 1270.37346 477462.1241
 -421.2506688 1270.373328 477462.1241
 -1230.635976 1230.635864 477460.8281
 -1940.934398 1149.353804 477458.6716
 -2484.825963 1017.059802 477456.4509
 -2891.489569 713.1018938 477454.7121
 2910.195212 276.4564284 477455.0509
 2566.630947 346.1099239 477456.976
 2002.234621 392.587446 477459.6404
 1270.373376 421.2507681 477462.1241
 435.1011017 435.1008358 477463.6035
 -435.1011004 435.1009919 477463.6035
 -1270.373372 421.25063 477462.1241
 -2002.234621 392.5875513 477459.6404
 -2566.630942 346.1098602 477456.976
 -2910.19521 276.4564486 477455.0509
 2910.195186 -276.4565815 477455.0509
 2566.63103 -346.1100792 477456.976
 2002.234483 -392.5875979 477459.6404
 1270.373559 -421.2509263 477462.1241
 435.100894 -435.1009869 477463.6035
 -435.1008911 -435.1011509 477463.6035
 -1270.373559 -421.2507813 477462.1241
 -2002.234478 -392.5877082 477459.6404
 -2566.63103 -346.1100127 477456.976
 -2910.195183 -276.4566025 477455.0509
 2891.489589 -713.1020594 477454.7121
 2484.825898 -1017.059904 477456.4509
 1940.934521 -1149.354051 477458.6716
 1230.635817 -1230.635895 477460.8281
 421.2508555 -1270.373625 477462.1241
 -421.250854 -1270.373473 477462.1241
 -1230.635813 -1230.636028 477460.8281
 -1940.934521 -1149.353952 477458.6716
 -2484.825895 -1017.059959 477456.4509
 -2891.489587 -713.1020462 477454.7121
 0 0 0
 2242.887794 -1735.475615 477455.5779
 1821.56955 -1821.569622 477457.0505
 1149.353971 -1940.934597 477458.6716
 392.5875236 -2002.234565 477459.6404
 -392.5875211 -2002.234685 477459.6404
 -1149.35397 -1940.934495 477458.6716
 -1821.569547 -1821.569691 477457.0505
 -2242.887792 -1735.475587 477455.5779
 0 0 -0
 0 0 0
 2146.690086 -2146.690159 477454.3483
 1735.475538 -2242.88787 477455.5779
 1017.059832 -2484.825974 477456.4509
 346.11 -2566.631104 477456.976
 -346.109998 -2566.63103 477456.976
 -1017.05983 -2484.826033 477456.4509
 -1735.475536 -2242.887841 477455.5779
 -2146.690083 -2146.690169 477454.3483
 0 0 -0
 0 0 0
 0 0 0
 0 0 0
 713.1019835 -2891.489665 477454.7121
 276.4565076 -2910.195263 477455.0509
 -276.4565055 -2910.195287 477455.0509
 -713.1019815 -2891.489651 477454.7121
 0 0 -0
 0 0 -0
 0 0 -0
 0 0 0
 0 0 0
 0 0 0
 403.4541609 1636.918048 477461.0236
 156.3920777 1647.240949 477461.1329
 -156.3920764 1647.240932 477461.1329
 -403.4541597 1636.918058 477461.0236
 0 0 -0
 0 0 -0
 0 0 -0
 0 0 0
 1215.449222 1215.449159 477460.9059
 982.1309796 1269.225014 477461.3029
 575.2715149 1405.779878 477461.5839
 195.7102463 1451.755864 477461.7528
 -195.7102452 1451.75592 477461.7528
 -575.2715133 1405.779833 477461.5839
 -982.1309786 1269.225037 477461.3029
 -1215.44922 1215.449151 477460.9059
 0 0 -0
 0 0 0
 1269.225121 982.1308711 477461.3029
 1030.258186 1030.258189 477461.7769
 649.713782 1097.279321 477462.2971