# OOMMF OVF 2.0
#
# Segment count: 1
#
# Begin: Segment
# Begin: Header
#
# Title: Oxs_MinDriver::Magnetization
# Desc: Oxs vector field output
# Desc:  MIF source file: F:/Bogdan/UNIC/2022/Master_degree/Samples/Cylinder11_7.mif
# Desc:  Iteration: 913, State id: 4324
# Desc:  Stage: 5, Stage iteration: 24
# Desc:  Stage simulation time: 0 s
# Desc:  Total simulation time: -2 s
# meshunit: m
# meshtype: rectangular
# xbase: -2.5000000000000001e-09
# ybase: -2.5000000000000001e-09
# zbase: -6.4999999999999995e-09
# xnodes: 6
# ynodes: 6
# znodes: 14
# xstepsize: 1.0000000000000001e-09
# ystepsize: 1.0000000000000001e-09
# zstepsize: 1.0000000000000001e-09
# xmin: -3e-09
# ymin: -3e-09
# zmin: -6.9999999999999998e-09
# xmax: 3.0000000000000008e-09
# ymax: 3.0000000000000008e-09
# zmax: 7.0000000000000015e-09
# valuedim: 3
# valuelabels: Magnetization_x Magnetization_y Magnetization_z
# valueunits: A/m A/m A/m
#
# End: Header
#
# Begin: Data Text
 0 0 0
 1981.224188 3741.625245 477445.2286
 749.5488796 3825.861008 477448.0833
 -749.5482531 3825.861013 477448.0833
 -1981.223565 3741.625241 477445.2286
 0 0 -0
 3741.620172 1981.229261 477445.2286
 2444.471772 2444.476853 477451.4849
 853.4135061 2578.362419 477456.2755
 -853.4128833 2578.362405 477456.2755
 -2444.471141 2444.476863 477451.4849
 -3741.619549 1981.229257 477445.2286
 3825.855933 749.5539654 477448.0833
 2578.357332 853.4185909 477456.2755
 899.2561788 899.2612762 477462.3063
 -899.2555477 899.2612911 477462.3063
 -2578.356716 853.41858 477456.2755
 -3825.855304 749.5539688 477448.0834
 3825.855929 -749.5431663 477448.0834
 2578.357318 -853.4077813 477456.2756
 899.2562007 -899.2504662 477462.3063
 -899.2555791 -899.2504756 477462.3063
 -2578.356683 -853.4077741 477456.2756
 -3825.855309 -749.5431685 477448.0834
 3741.620154 -1981.218475 477445.2286
 2444.471771 -2444.46606 477451.4849
 853.4134858 -2578.351613 477456.2756
 -853.4128565 -2578.35161 477456.2756
 -2444.471151 -2444.466063 477451.4849
 -3741.619527 -1981.218473 477445.2286
 0 0 0
 1981.22417 -3741.614458 477445.2287
 749.5488792 -3825.850227 477448.0834
 -749.5482547 -3825.850228 477448.0834
 -1981.223544 -3741.614457 477445.2287
 0 0 -0
 0 0 0
 1578.815059 2988.727089 477452.0354
 614.2962064 3059.099481 477453.8049
 -614.2956172 3059.099467 477453.8049
 -1578.814464 2988.727096 477452.0354
 0 0 -0
 2988.72203 1578.820119 477452.0355
 1995.481711 1995.486777 477455.6601
 709.3195254 2128.830934 477458.7273
 -709.3189245 2128.830966 477458.7273
 -1995.481136 1995.486754 477455.6601
 -2988.721433 1578.820124 477452.0355
 3059.094415 614.3012718 477453.805
 2128.825862 709.3246146 477458.7273
 754.7064986 754.711561 477462.8071
 -754.7059186 754.7115267 477462.8071
 -2128.825245 709.3246391 477458.7273
 -3059.093836 614.301263 477453.805
 3059.094401 -614.2905301 477453.805
 2128.825888 -709.3138724 477458.7273
 754.7064342 -754.7008033 477462.8071
 -754.7058289 -754.7007822 477462.8071
 -2128.825321 -709.3138877 477458.7273
 -3059.093798 -614.2905243 477453.805
 2988.722016 -1578.809395 477452.0355
 1995.481679 -1995.476032 477455.6602
 709.3195668 -2128.820207 477458.7273
 -709.3189833 -2128.820214 477458.7273
 -1995.481071 -1995.476026 477455.6602
 -2988.721431 -1578.809396 477452.0355
 0 0 0
 1578.815047 -2988.716364 477452.0355
 614.2961834 -3059.08875 477453.805
 -614.2955887 -3059.088749 477453.805
 -1578.81446 -2988.716364 477452.0355
 0 0 -0
 0 0 0
 1153.04626 2179.772447 477457.632
 453.5188794 2230.415586 477458.575
 -453.5183472 2230.415597 477458.575
 -1153.045737 2179.77244 477457.632
 0 0 -0
 2179.767395 1153.051308 477457.632
 1468.816546 1468.821613 477459.4815
 527.4114467 1575.225537 477461.1102
 -527.4109292 1575.225509 477461.1102
 -1468.815997 1468.821632 477459.4815
 -2179.766875 1153.051302 477457.632
 2230.41053 453.5239516 477458.575
 1575.220483 527.4164864 477461.1103
 564.600794 564.6058953 477463.3324
 -564.6002486 564.6059224 477463.3324
 -1575.219987 527.4164667 477461.1103
 -2230.409987 453.523958 477458.575
 2230.410533 -453.5132919 477458.5751
 1575.220436 -527.4058169 477461.1103
 564.6008809 -564.5952343 477463.3324
 -564.6003684 -564.5952481 477463.3324
 -1575.219875 -527.4058064 477461.1103
 -2230.41002 -453.5132954 477458.5751
 2179.767368 -1153.040657 477457.6321
 1468.816565 -1468.810965 477459.4815
 527.4113786 -1575.214865 477461.1103
 -527.4108381 -1575.214863 477461.1103
 -1468.816058 -1468.810967 477459.4815
 -2179.766832 -1153.040655 477457.6321
 0 0 0
 1153.046231 -2179.76179 477457.6321
 453.5188939 -2230.404945 477458.5751
 -453.518369 -2230.404943 477458.5751
 -1153.045697 -2179.76179 477457.6321
 0 0 -0
 0 0 0
 791.680816 1494.979748 477461.0032
 312.5529501 1528.23376 477461.452
 -312.5525139 1528.23376 477461.452
 -791.6803719 1494.979748 477461.0032
 0 0 -0
 1494.974685 791.6858779 477461.0032
 1010.183171 1010.188214 477461.8627
 364.1759708 1084.784122 477462.6288
 -364.1755204 1084.784121 477462.6288
 -1010.182752 1010.188214 477461.8627
 -1494.974238 791.6858769 477461.0032
 1528.228706 312.5580025 477461.452
 1084.779027 364.1810819 477462.6288
 390.6799215 390.6849387 477463.6803
 -390.6794975 390.684946 477463.6803
 -1084.778557 364.1810765 477462.6288
 -1528.228281 312.558004 477461.452
 1528.228683 -312.5474194 477461.452
 1084.779073 -364.1705002 477462.6288
 390.679821 -390.6743502 477463.6803
 -390.6793652 -390.6743642 477463.6803
 -1084.778666 -364.1704902 477462.6288
 -1528.22823 -312.5474225 477461.452
 1494.974671 -791.6753074 477461.0032
 1010.183122 -1010.177631 477461.8627
 364.1760371 -1084.77355 477462.6288
 -364.1756087 -1084.773536 477462.6288
 -1010.182662 -1010.17764 477461.8627
 -1494.97424 -791.6753042 477461.0032
 0 0 0
 791.6808045 -1494.969172 477461.0032
 312.5529166 -1528.223186 477461.452
 -312.5524734 -1528.223192 477461.452
 -791.6803709 -1494.969168 477461.0032
 0 0 -0
 0 0 0
 505.5457389 954.2162556 477462.7789
 199.8309393 974.4557601 477462.9638
 -199.8306072 974.4557456 477462.9638
 -505.5454135 954.2162629 477462.7789
 0 0 -0
 954.2111834 505.5508066 477462.7789
 645.0207354 645.0258532 477463.1286
 232.8095448 692.5366149 477463.441
 -232.8092233 692.5366557 477463.441
 -645.0203907 645.0258246 477463.1286
 -954.2108598 505.5508138 477462.7789
 974.4506611 199.8360474 477462.9638
 692.5315736 232.8145806 477463.441
 249.8045313 249.8096993 477463.8693
 -249.8041897 249.8096431 477463.8693
 -692.5312676 232.8146207 477463.441
 -974.450321 199.8360332 477462.9638
 974.4506676 -199.8255315 477462.9638
 692.531516 -232.8040648 477463.441
 249.8046236 -249.7991826 477463.8693
 -249.8043063 -249.7991275 477463.8693
 -692.5311624 -232.8041042 477463.441
 -974.4503498 -199.8255176 477462.9638
 954.2111517 -505.5403008 477462.7789
 645.0207586 -645.0153409 477463.1286
 232.8094716 -692.5261046 477463.441
 -232.8091333 -692.5261433 477463.441
 -645.0204457 -645.0153137 477463.1286
 -954.2108164 -505.5403077 477462.7789
 0 0 0
 505.5457053 -954.2057427 477462.7789
 199.8309544 -974.4452538 477462.9638
 -199.8306276 -974.4452403 477462.9638
 -505.5453719 -954.2057495 477462.7789
 0 0 -0
 0 0 0
 279.0350792 526.6245825 477463.628
 110.3344602 537.3878152 477463.6848
 -110.3342575 537.3878417 477463.6848
 -279.0348732 526.6245675 477463.628
 0 0 -0
 526.6194519 279.0402062 477463.628
 355.8785002 355.8835835 477463.7347
 128.4718315 381.9161787 477463.83
 -128.4716228 381.9161035 477463.83
 -355.8783049 355.8836354 477463.7347
 -526.6192447 279.0401915 477463.628
 537.3827114 110.3395672 477463.6848
 381.9109938 128.4770205 477463.83
 137.8035081 137.8085542 477463.9602
 -137.8033109 137.8086546 477463.9602
 -381.9107761 128.4769483 477463.83
 -537.3825141 110.3395921 477463.6848
 537.3826898 -110.3290995 477463.6848
 381.9110299 -128.4665511 477463.83
 137.8034359 -137.7980892 477463.9602
 -137.8032244 -137.7981849 477463.9602
 -381.9108403 -128.4664821 477463.83
 -537.3824792 -110.3291234 477463.6848
 526.6194357 -279.0297466 477463.628
 355.8784566 -355.8731222 477463.7347
 128.471877 -381.9057107 477463.83
 -128.4716782 -381.9056447 477463.83
 -355.8782426 -355.8731679 477463.7347
 -526.6192354 -279.0297334 477463.628
 0 0 0
 279.0350642 -526.6141147 477463.6281
 110.3344334 -537.3773581 477463.6848
 -110.3342276 -537.3773803 477463.6848
 -279.0348629 -526.6141019 477463.6281
 0 0 -0
 0 0 0
 88.97148714 167.9205636 477463.9622
 35.18313405 171.2851152 477463.968
 -35.18306457 171.2850832 477463.968
 -88.97141866 167.9205812 477463.9622
 0 0 -0
 167.9153984 88.97664851 477463.9622
 113.4442558 113.4494695 477463.973
 40.95140291 121.7100144 477463.9827
 -40.95133506 121.7101056 477463.9827
 -113.4441843 113.449406 477463.973
 -167.9153303 88.97666588 477463.9622
 171.2799185 35.18833421 477463.968
 121.7048851 40.95653577 477463.9827
 43.91376167 43.91902151 477463.996
 -43.91369042 43.91889666 477463.996
 -121.7048202 40.95662556 477463.9827
 -171.2798475 35.18830295 477463.968
 171.2799146 -35.17789041 477463.968
 121.7048631 -40.94609366 477463.9827
 43.91378686 -43.90857816 477463.996
 -43.91372022 -43.90845577 477463.996
 -121.7047892 -40.94618174 477463.9827
 -171.2798478 -35.17785969 477463.968
 167.9153718 -88.96621437 477463.9622
 113.444253 -113.4390282 477463.973
 40.95137791 -121.699578 477463.9827
 -40.95130687 -121.6996645 477463.9827
 -113.4441875 -113.4389679 477463.973
 -167.9153015 -88.96623094 477463.9622
 0 0 0
 88.97146024 -167.9101215 477463.9622
 35.18313188 -171.2746791 477463.968
 -35.18306341 -171.2746493 477463.968
 -88.97139025 -167.9101379 477463.9622
 0 0 -0
 0 0 0
 -88.97146038 -167.9101215 477463.9622
 -35.18313164 -171.2746791 477463.968
 35.18306316 -171.2746493 477463.968
 88.97139038 -167.9101379 477463.9622
 0 0 -0
 -167.915372 -88.96621436 477463.9622
 -113.4442525 -113.4390282 477463.973
 -40.95137861 -121.699578 477463.9827
 40.95130757 -121.6996645 477463.9827
 113.4441871 -113.4389678 477463.973
 167.9153016 -88.96623095 477463.9622
 -171.2799143 -35.17789042 477463.968
 -121.7048638 -40.94609361 477463.9827
 -43.91378589 -43.90857823 477463.996
 43.91371925 -43.9084557 477463.996
 121.7047899 -40.94618179 477463.9827
 171.2798476 -35.17785967 477463.968
 -171.2799187 35.18833423 477463.968
 -121.7048844 40.95653572 477463.9827
 -43.91376264 43.91902158 477463.996
 43.91369139 43.91889659 477463.996
 121.7048195 40.95662561 477463.9827
 171.2798477 35.18830293 477463.968
 -167.9153983 88.9766485 477463.9622
 -113.4442563 113.4494695 477463.973
 -40.95140222 121.7100143 477463.9827
 40.95133437 121.7101056 477463.9827
 113.4441848 113.4494059 477463.973
 167.9153301 88.97666589 477463.9622
 0 0 0
 -88.97148701 167.9205636 477463.9622
 -35.18313429 171.2851153 477463.968
 35.18306481 171.2850832 477463.968
 88.97141852 167.9205812 477463.9622
 0 0 -0
 0 0 0
 -279.0350641 -526.6141147 477463.6281
 -110.3344335 -537.377358 477463.6848
 110.3342277 -537.3773803 477463.6848
 279.0348628 -526.6141019 477463.6281
 0 0 -0
 -526.6194356 -279.0297466 477463.628
 -355.8784569 -355.8731221 477463.7347
 -128.4718766 -381.9057108 477463.83
 128.4716778 -381.9056446 477463.83
 355.8782429 -355.873168 477463.7347
 526.6192353 -279.0297334 477463.628
 -537.3826899 -110.3290995 477463.6848
 -381.9110295 -128.4665512 477463.83
 -137.8034364 -137.798089 477463.9602
 137.8032249 -137.7981851 477463.9602
 381.9108399 -128.4664819 477463.83
 537.3824794 -110.3291234 477463.6848
 -537.3827113 110.3395672 477463.6848
 -381.9109942 128.4770207 477463.83
 -137.8035075 137.808554 477463.9602
 137.8033104 137.8086548 477463.9602
 381.9107765 128.4769481 477463.83
 537.3825139 110.3395922 477463.6848
 -526.619452 279.0402062 477463.628
 -355.8784999 355.8835834 477463.7347
 -128.4718319 381.9161788 477463.83
 128.4716232 381.9161034 477463.83
 355.8783046 355.8836355 477463.7347
 526.6192448 279.0401915 477463.628
 0 0 0
 -279.0350793 526.6245826 477463.628
 -110.3344601 537.3878151 477463.6848
 110.3342574 537.3878417 477463.6848
 279.0348733 526.6245675 477463.628
 0 0 -0
 0 0 0
 -505.5457053 -954.2057427 477462.7789
 -199.8309544 -974.4452539 477462.9638
 199.8306276 -974.4452402 477462.9638
 505.5453719 -954.2057495 477462.7789
 0 0 -0
 -954.2111517 -505.5403008 477462.7789
 -645.0207587 -645.015341 477463.1286
 -232.8094716 -692.5261044 477463.441
 232.8091332 -692.5261435 477463.441
 645.0204457 -645.0153135 477463.1286
 954.2108164 -505.5403078 477462.7789
 -974.4506676 -199.8255316 477462.9638
 -692.5315159 -232.8040646 477463.441
 -249.8046238 -249.7991829 477463.8693
 249.8043064 -249.7991272 477463.8693
 692.5311624 -232.8041044 477463.441
 974.4503499 -199.8255175 477462.9638
 -974.4506611 199.8360474 477462.9638
 -692.5315736 232.8145804 477463.441
 -249.8045312 249.8096996 477463.8693
 249.8041896 249.8096428 477463.8693
 692.5312677 232.8146209 477463.441
 974.450321 199.8360331 477462.9638
 -954.2111834 505.5508066 477462.7789
 -645.0207353 645.0258534 477463.1286
 -232.8095449 692.5366147 477463.441
 232.8092233 692.5366559 477463.441
 645.0203907 645.0258244 477463.1286
 954.2108598 505.5508139 477462.7789
 0 0 0
 -505.5457389 954.2162556 477462.7789
 -199.8309393 974.4557602 477462.9638
 199.8306071 974.4557456 477462.9638
 505.5454135 954.216263 477462.7789
 0 0 -0
 0 0 0
 -791.6808046 -1494.969172 477461.0032
 -312.5529164 -1528.223186 477461.452
 312.5524733 -1528.223192 477461.452
 791.680371 -1494.969168 477461.0032
 0 0 -0
 -1494.974671 -791.6753074 477461.0032
 -1010.183122 -1010.177631 477461.8627
 -364.1760376 -1084.77355 477462.6288
 364.1756092 -1084.773535 477462.6288
 1010.182661 -1010.177641 477461.8627
 1494.97424 -791.6753041 477461.0032
 -1528.228683 -312.5474194 477461.452
 -1084.779074 -364.1705004 477462.6288
 -390.6798203 -390.6743499 477463.6803
 390.6793645 -390.6743645 477463.6803
 1084.778666 -364.1704899 477462.6288
 1528.228229 -312.5474225 477461.452
 -1528.228706 312.5580024 477461.452
 -1084.779027 364.1810821 477462.6288
 -390.6799222 390.6849384 477463.6803
 390.6794982 390.6849463 477463.6803
 1084.778557 364.1810763 477462.6288
 1528.228281 312.5580041 477461.452
 -1494.974685 791.6858779 477461.0032
 -1010.183172 1010.188214 477461.8627
 -364.1759703 1084.784122 477462.6288
 364.1755198 1084.78412 477462.6288
 1010.182753 1010.188214 477461.8627
 1494.974238 791.6858768 477461.0032
 0 0 0
 -791.6808159 1494.979748 477461.0032
 -312.5529502 1528.23376 477461.452
 312.552514 1528.23376 477461.452
 791.6803718 1494.979747 477461.0032
 0 0 -0
 0 0 0
 -1153.04623 -2179.76179 477457.6321
 -453.5188941 -2230.404945 477458.5751
 453.5183692 -2230.404943 477458.5751
 1153.045697 -2179.76179 477457.6321
 0 0 -0
 -2179.767368 -1153.040657 477457.6321
 -1468.816565 -1468.810965 477459.4815
 -527.4113778 -1575.214865 477461.1103
 527.4108374 -1575.214864 477461.1103
 1468.816059 -1468.810966 477459.4815
 2179.766832 -1153.040655 477457.6321
 -2230.410533 -453.513292 477458.5751
 -1575.220435 -527.4058167 477461.1103
 -564.6008819 -564.5952346 477463.3324
 564.6003695 -564.5952478 477463.3324
 1575.219874 -527.4058066 477461.1103
 2230.410021 -453.5132954 477458.5751
 -2230.410529 453.5239517 477458.575
 -1575.220484 527.4164862 477461.1103
 -564.600793 564.6058956 477463.3324
 564.6002476 564.6059221 477463.3324
 1575.219988 527.4164669 477461.1103
 2230.409987 453.5239579 477458.575
 -2179.767395 1153.051308 477457.632
 -1468.816546 1468.821613 477459.4815
 -527.4114475 1575.225537 477461.1102
 527.4109299 1575.225509 477461.1102
 1468.815996 1468.821632 477459.4815
 2179.766875 1153.051302 477457.632
 0 0 0
 -1153.04626 2179.772447 477457.632
 -453.5188791 2230.415586 477458.575
 453.518347 2230.415597 477458.575
 1153.045738 2179.77244 477457.632
 0 0 -0
 0 0 0
 -1578.815047 -2988.716364 477452.0355
 -614.2961832 -3059.08875 477453.805
 614.2955884 -3059.088749 477453.805
 1578.81446 -2988.716364 477452.0355
 0 0 -0
 -2988.722016 -1578.809395 477452.0355
 -1995.481679 -1995.476032 477455.6602
 -709.3195674 -2128.820207 477458.7273
 709.3189839 -2128.820214 477458.7273
 1995.481071 -1995.476026 477455.6602
 2988.721431 -1578.809396 477452.0355
 -3059.0944 -614.2905301 477453.805
 -2128.825888 -709.3138725 477458.7273
 -754.7064333 -754.7008031 477462.8071
 754.705828 -754.7007824 477462.8071
 2128.825321 -709.3138875 477458.7273
 3059.093798 -614.2905243 477453.805
 -3059.094415 614.3012718 477453.805
 -2128.825861 709.3246148 477458.7273
 -754.7064995 754.7115608 477462.8071
 754.7059194 754.7115269 477462.8071
 2128.825245 709.3246389 477458.7273
 3059.093836 614.3012631 477453.805
 -2988.72203 1578.820119 477452.0355
 -1995.481712 1995.486777 477455.6601
 -709.3195248 2128.830934 477458.7273
 709.3189238 2128.830966 477458.7273
 1995.481136 1995.486754 477455.6601
 2988.721433 1578.820124 477452.0355
 0 0 0
 -1578.815059 2988.727089 477452.0354
 -614.2962066 3059.099481 477453.8049
 614.2956174 3059.099467 477453.8049
 1578.814464 2988.727096 477452.0354
 0 0 -0
 0 0 0
 -1981.22417 -3741.614458 477445.2287
 -749.5488793 -3825.850227 477448.0834
 749.5482548 -3825.850228 477448.0834
 1981.223543 -3741.614457 477445.2287
 0 0 -0
 -3741.620154 -1981.218475 477445.2286
 -2444.471771 -2444.46606 477451.4849
 -853.4134855 -2578.351613 477456.2756
 853.4128562 -2578.35161 477456.2756
 2444.471152 -2444.466063 477451.4849
 3741.619527 -1981.218473 477445.2286
 -3825.855929 -749.5431663 477448.0834
 -2578.357318 -853.4077812 477456.2756
 -899.2562011 -899.2504662 477462.3063
 899.2555795 -899.2504755 477462.3063
 2578.356683 -853.4077742 477456.2756
 3825.855309 -749.5431685 477448.0834
 -3825.855933 749.5539654 477448.0833
 -2578.357333 853.4185909 477456.2755
 -899.2561784 899.2612762 477462.3063
 899.2555474 899.261291 477462.3063
 2578.356716 853.4185801 477456.2755
 3825.855304 749.5539688 477448.0834
 -3741.620172 1981.229261 477445.2286
 -2444.471772 2444.476853 477451.4849
 -853.4135064 2578.362419 477456.2755
 853.4128836 2578.362405 477456.2755
 2444.471141 2444.476863 477451.4849
 3741.619549 1981.229257 477445.2286
 0 0 0
 -1981.224188 3741.625245 477445.2286
 -749.5488795 3825.861008 477448.0833
 749.548253 3825.861013 477448.0833
 1981.223565 3741.625241 477445.2286
 0 0 -0
# End: Data Text
# End: Segment
