# OOMMF OVF 2.0
#
# Segment count: 1
#
# Begin: Segment
# Begin: Header
#
# Title: Oxs_MinDriver::Magnetization
# Desc: Oxs vector field output
# Desc:  MIF source file: F:/Bogdan/UNIC/2022/Master_degree/Samples/Cylinder11_7.mif
# Desc:  Iteration: 1313, State id: 2854
# Desc:  Stage: 1, Stage iteration: 558
# Desc:  Stage simulation time: 0 s
# Desc:  Total simulation time: -2 s
# meshunit: m
# meshtype: rectangular
# xbase: -1.5000000000000002e-08
# ybase: -1.5000000000000002e-08
# zbase: -8.9999999999999995e-09
# xnodes: 16
# ynodes: 16
# znodes: 10
# xstepsize: 2.0000000000000001e-09
# ystepsize: 2.0000000000000001e-09
# zstepsize: 2.0000000000000001e-09
# xmin: -1.6000000000000001e-08
# ymin: -1.6000000000000001e-08
# zmin: -1e-08
# xmax: 1.6000000000000001e-08
# ymax: 1.6000000000000001e-08
# zmax: 1e-08
# valuedim: 3
# valuelabels: Magnetization_x Magnetization_y Magnetization_z
# valueunits: A/m A/m A/m
#
# End: Header
#
# Begin: Data Text
 0 0 0
 0 0 0
 0 0 0
 0 0 0
 0 0 0
 14250.73534 49414.14048 474686.2443
 9444.582706 49661.35352 474780.3925
 3255.638739 49828.44051 474845.6577
 -3255.620611 49828.44133 474845.6577
 -9444.564709 49661.35583 474780.3926
 -14250.71757 49414.14387 474686.2445
 0 0 -0
 0 0 -0
 0 0 -0
 0 0 -0
 0 0 -0
 0 0 0
 0 0 0
 0 0 0
 28641.3413 42475.29533 474707.6934
 23907.53372 43275.96436 474897.3489
 16831.40194 45111.29697 475030.0476
 10246.52718 45687.10626 475162.6756
 3447.968418 45895.63069 475240.5432
 -3447.950659 45895.63159 475240.5432
 -10246.50956 45687.10899 475162.6757
 -16831.38456 45111.30136 475030.0478
 -23907.51681 43275.97055 474897.3492
 -28641.32478 42475.30252 474707.6937
 0 0 -0
 0 0 -0
 0 0 -0
 0 0 0
 0 0 0
 35894.43804 35894.36855 474757.8908
 30750.78135 37820.95322 474969.3003
 24722.86266 38765.88645 475245.0498
 17822.52298 39603.75552 475484.7753
 10769.07841 40017.37052 475662.1788
 3603.793637 40183.49601 475756.4194
 -3603.776698 40183.49709 475756.4195
 -10769.06156 40017.37362 475662.1789
 -17822.5063 39603.76058 475484.7755
 -24722.8463 38765.8932 475245.0501
 -30750.76535 37820.96132 474969.3007
 -35894.42257 35894.37771 474757.8913
 0 0 -0
 0 0 -0
 0 0 0
 42475.36788 28641.27471 474707.6909
 37821.02524 30750.71241 474969.299
 31972.32247 31972.2505 475318.2272
 25407.0845 32678.48744 475666.3408
 18346.38523 33163.34191 475957.429
 11073.85691 33432.92656 476163.2918
 3701.51222 33548.37539 476269.542
 -3701.496535 33548.37655 476269.542
 -11073.84122 33432.93008 476163.2919
 -18346.36968 33163.34749 475957.4292
 -25407.06904 32678.4949 475666.3412
 -31972.30732 31972.25938 475318.2276
 -37821.01046 30750.72242 474969.2996
 -42475.35366 28641.28549 474707.6915
 0 0 -0
 0 0 0
 43276.03872 23907.46512 474897.3456
 38765.96023 24722.79356 475245.0474
 32678.56065 25407.01434 475666.3396
 25864.30999 25864.23833 476060.8679
 18655.58129 26162.15915 476381.5509
 11252.03248 26332.31663 476604.5239
 3759.307257 26407.2506 476718.3613
 -3759.293142 26407.2519 476718.3614
 -11252.0184 26332.32048 476604.524
 -18655.56707 26162.16531 476381.5511
 -25864.29587 25864.24639 476060.8682
 -32678.54656 25407.02399 475666.34
 -38765.94638 24722.8043 475245.048
 -43276.02516 23907.47655 474897.3463
 0 0 -0
 49414.21641 14250.66831 474686.2384
 45111.37256 16831.33346 475030.0428
 39603.83023 17822.45247 475484.7717
 33163.41511 18346.31551 475957.4266
 26162.23033 18655.51119 476381.5497
 18842.12183 18842.05275 476719.8578
 11355.76612 18946.30113 476952.7813
 3792.601517 18992.19364 477071.0472
 -3792.589278 18992.19507 477071.0472
 -11355.75372 18946.30523 476952.7814
 -18842.10938 18842.05933 476719.858
 -26162.21763 18655.51984 476381.5501
 -33163.40239 18346.32577 475957.4271
 -39603.81753 17822.46396 475484.7723
 -45111.3601 16831.34569 475030.0436
 -49414.20452 14250.68115 474686.2393
 49661.42902 9444.514775 474780.386
 45687.18257 10246.45826 475162.6698
 40017.44501 10769.00874 475662.1741
 33432.99931 11073.78867 476163.2882
 26332.38777 11251.96568 476604.5215
 18946.36891 11355.69987 476952.7801
 11412.40203 11412.33862 477191.1429
 3810.567498 11437.04007 477311.7901
 -3810.557163 11437.04148 477311.7902
 -11412.3916 11412.34299 477191.1431
 -18946.35813 11355.70676 476952.7804
 -26332.37676 11251.97474 476604.5219
 -33432.98802 11073.79945 476163.2888
 -40017.43357 10769.02071 475662.1748
 -45687.17119 10246.47106 475162.6706
 -49661.41783 9444.527946 474780.3869
 49828.51477 3255.569708 474845.6504
 45895.70602 3447.899088 475240.5364
 40183.57058 3603.725521 475756.4136
 33548.44792 3701.44507 476269.5374
 26407.31916 3759.242578 476718.358
 18992.25889 3792.537797 477071.0451
 11437.10126 3810.507133 477311.7891
 3818.350204 3818.291174 477433.4636
 -3818.341802 3818.292752 477433.4636
 -11437.09261 3810.511523 477311.7893
 -18992.24996 3792.544892 477071.0454
 -26407.30976 3759.251888 476718.3585
 -33548.43809 3701.45611 476269.538
 -40183.56048 3603.737867 475756.4144
 -45895.69575 3447.91217 475240.5373
 -49828.50454 3255.583189 474845.6514
 49828.51488 -3255.69031 474845.6495
 45895.70595 -3448.019403 475240.5356
 40183.5704 -3603.843532 475756.4128
 33548.44741 -3701.561267 476269.5365
 26407.31823 -3759.355381 476718.3572
 18992.2581 -3792.649805 477071.0442
 11437.10088 -3810.61432 477311.7883
 3818.349572 -3818.397561 477433.4627
 -3818.342887 -3818.396117 477433.4628
 -11437.09401 -3810.609842 477311.7885
 -18992.25076 -3792.642754 477071.0446
 -26407.31038 -3759.346056 476718.3577
 -33548.43906 -3701.55015 476269.5372
 -40183.56156 -3603.831179 475756.4136
 -45895.69686 -3448.006163 475240.5365
 -49828.50565 -3255.67672 474845.6506
 49661.42812 -9444.632898 474780.3837
 45687.18111 -10246.57607 475162.6674
 40017.4432 -10769.12683 475662.1715
 33432.99742 -11073.90299 476163.2857
 26332.38559 -11252.07761 476604.519
 18946.36641 -11355.81006 476952.7776
 11412.39986 -11412.44519 477191.1404
 3810.565172 -11437.14432 477311.7876
 -3810.560015 -11437.14277 477311.7877
 -11412.39441 -11412.44092 477191.1407
 -18946.36056 -11355.80312 476952.778
 -26332.37914 -11252.06849 476604.5196
 -33432.99037 -11073.89212 476163.2865
 -40017.43562 -10769.11461 475662.1725
 -45687.17309 -10246.56307 475162.6684
 -49661.41981 -9444.61939 474780.3849
 49414.21406 -14250.78351 474686.2352
 45111.36975 -16831.44916 475030.039
 39603.82721 -17822.56942 475484.7676
 33163.41216 -18346.42888 475957.4224
 26162.22746 -18655.62415 476381.5454
 18842.11885 -18842.16327 476719.8535
 11355.76246 -18946.40915 476952.777
 3792.597747 -18992.29872 477071.043
 -3792.593764 -18992.2974 477071.0431
 -11355.75829 -18946.40498 476952.7773
 -18842.11417 -18842.15669 476719.854
 -26162.22223 -18655.61542 476381.5461
 -33163.4063 -18346.41843 475957.4232
 -39603.82075 -17822.55773 475484.7685
 -45111.36276 -16831.43654 475030.0401
 -49414.20638 -14250.77025 474686.2364
 0 0 0
 43276.03551 -23907.57879 474897.3402
 38765.95713 -24722.90563 475245.0418
 32678.55773 -25407.12606 475666.3338
 25864.30644 -25864.35004 476060.862
 18655.57723 -26162.2691 476381.545
 11252.02789 -26332.42589 476604.5179
 3759.30179 -26407.35566 476718.3555
 -3759.298767 -26407.35429 476718.3556
 -11252.02458 -26332.4221 476604.5182
 -18655.57357 -26162.26293 476381.5455
 -25864.30218 -25864.34187 476060.8627
 -32678.55288 -25407.11626 475666.3347
 -38765.95173 -24722.89459 475245.0429
 -43276.0297 -23907.56701 474897.3413
 0 0 -0
 0 0 0
 42475.36563 -28641.38474 474707.6845
 37821.0221 -30750.82218 474969.2922
 31972.31958 -31972.36277 475318.2198
 25407.08067 -32678.59938 475666.3334
 18346.37999 -33163.45163 475957.4215
 11073.85084 -33433.03424 476163.2843
 3701.505775 -33548.48207 476269.5345
 -3701.503378 -33548.48093 476269.5346
 -11073.84829 -33433.03071 476163.2846
 -18346.37699 -33163.44602 475957.422
 -25407.07721 -32678.59186 475666.3341
 -31972.31555 -31972.35373 475318.2207
 -37821.0175 -30750.81193 474969.2932
 -42475.36046 -28641.37355 474707.6856
 0 0 -0
 0 0 0
 0 0 0
 35894.43464 -35894.47642 474757.8829
 30750.77803 -37821.06313 474969.2918
 24722.85853 -38765.99637 475245.0411
 17822.51758 -39603.86377 475484.7665
 10769.0722 -40017.47714 475662.1699
 3603.786874 -40183.60285 475756.4104
 -3603.784954 -40183.60177 475756.4105
 -10769.07008 -40017.47404 475662.1702
 -17822.51518 -39603.85868 475484.767
 -24722.85563 -38765.98955 475245.0418
 -30750.77467 -37821.05491 474969.2926
 -35894.43075 -35894.46706 474757.8839
 0 0 -0
 0 0 -0
 0 0 0
 0 0 0
 0 0 0
 28641.33876 -42475.40494 474707.6837
 23907.52909 -43276.07339 474897.3392
 16831.39613 -45111.40493 475030.0375
 10246.52081 -45687.2142 475162.6654
 3447.961316 -45895.73633 475240.533
 -3447.959678 -45895.73541 475240.5331
 -10246.51905 -45687.21144 475162.6657
 -16831.39409 -45111.40054 475030.038
 -23907.52658 -43276.06716 474897.3399
 -28641.33592 -42475.39764 474707.6845
 0 0 -0
 0 0 -0
 0 0 -0
 0 0 0
 0 0 0
 0 0 0
 0 0 0
 0 0 0
 14250.72863 -49414.2475 474686.2334
 9444.576429 -49661.4592 474780.3816
 3255.631228 -49828.5438 474845.6469
 -3255.629762 -49828.54297 474845.647
 -9444.574866 -49661.45685 474780.3819
 -14250.72696 -49414.24405 474686.2338
 0 0 -0
 0 0 -0
 0 0 -0
 0 0 -0
 0 0 -0
 0 0 0
 0 0 0
 0 0 0
 0 0 0
 0 0 0
 11993.805 42206.20359 475443.6416
 8111.572834 42429.46539 475505.8508
 2821.003323 42586.29631 475552.6476
 -2820.986231 42586.2971 475552.6476
 -8111.5559 42429.46771 475505.8509
 -11993.78824 42206.20697 475443.6417
 0 0 -0
 0 0 -0
 0 0 -0
 0 0 -0
 0 0 -0
 0 0 0
 0 0 0
 0 0 0
 24477.03564 36218.57733 475458.6845
 20589.16407 37076.54827 475576.7942
 14482.35074 38949.42113 475652.2631
 8888.321375 39612.05363 475734.9622
 3005.56566 39846.93246 475788.8816
 -3005.548975 39846.93345 475788.8816
 -8888.304752 39612.05628 475734.9623
 -14482.33446 38949.42553 475652.2633
 -20589.14816 37076.55443 475576.7944
 -24477.02015 36218.58453 475458.6848
 0 0 -0
 0 0 -0
 0 0 -0
 0 0 0
 0 0 0
 30664.87033 30664.80232 475490.4909
 26517.27755 32595.34281 475611.4474
 21505.10921 33666.70765 475789.8216
 15566.82367 34596.53797 475954.4357
 9441.551705 35079.0222 476080.0254
 3166.583856 35273.20138 476148.7638
 -3166.56793 35273.20236 476148.7639
 -9441.535909 35079.0254 476080.0255
 -15566.80801 34596.54294 475954.4358
 -21505.0939 33666.71447 475789.8218
 -26517.26259 32595.35089 475611.4477
 -30664.85588 30664.81151 475490.4912
 0 0 -0
 0 0 -0
 0 0 0
 36218.64803 24476.96979 475458.6825
 32595.41329 26517.21005 475611.4464
 27843.82342 27843.75429 475837.4913
 22283.57383 28648.84925 476082.5108
 16156.34174 29198.89352 476296.4083
 9776.202897 29509.76178 476450.9115
 3271.834521 29643.82143 476531.6466
 -3271.819804 29643.82269 476531.6467
 -9776.188255 29509.7652 476450.9116
 -16156.32712 29198.8992 476296.4084
 -22283.55945 28648.85661 476082.511
 -27843.80927 27843.76323 475837.4916
 -32595.39955 26517.22003 475611.4467
 -36218.63481 24476.98062 475458.683
 0 0 -0
 0 0 0
 37076.62068 20589.09721 475576.7915
 33666.77947 21505.04186 475789.8196
 28648.92084 22283.50488 476082.5097
 22806.3041 22806.2342 476373.4034
 16505.38436 23144.71033 476617.0013
 9974.083886 23338.79011 476788.9363
 3335.26109 23424.70948 476877.3745
 -3335.247953 23424.7108 476877.3745
 -9974.070627 23338.79396 476788.9364
 -16505.37124 23144.71636 476617.0015
 -22806.29087 22806.24237 476373.4036
 -28648.90783 22283.51445 476082.51
 -33666.76661 21505.05268 475789.82
 -37076.60815 20589.10863 475576.7919
 0 0 -0
 42206.27793 11993.73864 475443.6367
 38949.49523 14482.28283 475652.2591
 34596.60984 15566.75504 475954.4327
 29198.96519 16156.27349 476296.4062
 23144.77977 16505.31642 476617.0003
 16715.5546 16715.4865 476878.4479
 10089.75741 16833.22647 477060.4894
 3372.12543 16885.29636 477153.4206
 -3372.114006 16885.29768 477153.4207
 -10089.74604 16833.23062 477060.4895
 -16715.54291 16715.49309 476878.448
 -23144.76813 16505.32501 476617.0006
 -29198.9534 16156.28384 476296.4066
 -34596.59816 15566.76642 475954.4332
 -38949.48377 14482.29515 475652.2597
 -42206.26705 11993.75144 475443.6373
 42429.53866 8111.505479 475505.8454
 39612.12775 8888.253768 475734.9573
 35079.09469 9441.483364 476080.0214
 29509.83286 9776.136035 476450.9085
 23338.85933 9974.018168 476788.9343
 16833.29317 10089.6928 477060.4884
 10153.21088 10153.14808 477248.0458
 3392.157812 10180.97047 477343.3904
 -3392.148342 10180.9721 477343.3905
 -10153.20115 10153.15228 477248.0459
 -16833.28341 10089.69969 477060.4886
 -23338.84915 9974.027258 476788.9346
 -29509.82254 9776.146752 476450.9089
 -35079.08425 9441.495409 476080.022
 -39612.11736 8888.266486 475734.9579
 -42429.52846 8111.518695 475505.8461
 42586.36867 2820.934702 475552.6415
 39847.00573 3005.497642 475788.8759
 35273.2735 3166.516867 476148.7589
 29643.89183 3271.769172 476531.6427
 23424.7771 3335.19763 476877.3716
 16885.3602 3372.063154 477153.4188
 10181.03067 3392.097993 477343.3896
 3400.890584 3400.832496 477439.7759
 -3400.882903 3400.833828 477439.7759
 -10181.02293 3392.102523 477343.3897
 -16885.35197 3372.070166 477153.4191
 -23424.76862 3335.206889 476877.372
 -29643.88297 3271.780219 476531.6432
 -35273.26434 3166.529081 476148.7595
 -39846.99648 3005.510815 475788.8766
 -42586.35942 2820.94815 475552.6422
 42586.36882 -2821.054973 475552.6408
 39847.00569 -3005.616662 475788.8751
 35273.27321 -3166.633801 476148.7582
 29643.89133 -3271.882913 476531.642
 23424.77626 -3335.309262 476877.3709
 16885.35922 -3372.173389 477153.4181
 10181.03047 -3392.204908 477343.3888
 3400.889951 -3400.938575 477439.7751
 -3400.884043 -3400.936883 477439.7752
 -10181.02426 -3392.200593 477343.389
 -16885.35277 -3372.166284 477153.4184
 -23424.76926 -3335.299961 476877.3713
 -29643.88385 -3271.871877 476531.6425
 -35273.26537 -3166.621372 476148.7589
 -39846.99756 -3005.603569 475788.8759
 -42586.36056 -2821.041364 475552.6416
 42429.5378 -8111.62357 475505.8435
 39612.12628 -8888.370797 475734.9552
 35079.09291 -9441.600618 476080.0192
 29509.83111 -9776.249222 476450.9063
 23338.85723 -9974.129119 476788.9321
 16833.29074 -10089.80161 477060.4862
 10153.20844 -10153.25377 477248.0436
 3392.155604 -10181.07377 477343.3883
 -3392.151128 -10181.07252 477343.3883
 -10153.20385 -10153.24934 477248.0438
 -16833.28562 -10089.79476 477060.4866
 -23338.85166 -9974.12002 476788.9326
 -29509.82497 -9776.238332 476450.9069
 -35079.08627 -9441.588558 476080.02
 -39612.11921 -8888.357701 475734.956
 -42429.53046 -8111.610128 475505.8444
 42206.27577 -11993.85354 475443.6339
 38949.49233 -14482.39884 475652.2558
 34596.60683 -15566.87042 475954.4292
 29198.96232 -16156.38589 476296.4026
 23144.77716 -16505.42734 476616.9966
 16715.55166 -16715.59724 476878.4441
 10089.75391 -16833.33364 477060.4857
 3372.12158 -16885.4001 477153.417
 -3372.1184 -16885.39851 477153.4171
 -10089.75042 -16833.32967 477060.4859
 -16715.54786 -16715.59063 476878.4445
 -23144.77277 -16505.41862 476616.9971
 -29198.95736 -16156.37553 476296.4032
 -34596.60132 -15566.85866 475954.4299
 -38949.48631 -14482.38635 475652.2567
 -42206.26904 -11993.84028 475443.6349
 0 0 0
 37076.61764 -20589.21007 475576.7868
 33666.77637 -21505.15322 475789.8148
 28648.91806 -22283.61656 476082.5046
 22806.3006 -22806.3452 476373.3983
 16505.38063 -23144.81892 476616.9962
 9974.079269 -23338.89762 476788.9312
 3335.256031 -23424.81451 476877.3694
 -3335.25375 -23424.81338 476877.3695
 -9974.076865 -23338.89369 476788.9314
 -16505.37773 -23144.81279 476616.9966
 -22806.29724 -22806.33707 476373.3988
 -28648.91413 -22283.60674 476082.5053
 -33666.77189 -21505.14225 475789.8156
 -37076.61278 -20589.19827 475576.7877
 0 0 -0
 0 0 0
 36218.64617 -24477.08052 475458.677
 32595.41045 -26517.32049 475611.4404
 27843.82061 -27843.86474 475837.485
 22283.57008 -28648.96087 476082.5042
 16156.33651 -29199.0028 476296.4018
 9776.197051 -29509.86889 476450.905
 3271.82793 -29643.92725 476531.6401
 -3271.826419 -29643.92595 476531.6402
 -9776.195253 -29509.8655 476450.9053
 -16156.33446 -29198.99713 476296.4022
 -22283.56749 -28648.9534 476082.5048
 -27843.81751 -27843.85569 475837.4857
 -32595.40681 -26517.31022 475611.4412
 -36218.64192 -24477.06934 475458.6779
 0 0 -0
 0 0 0
 0 0 0
 30664.86733 -30664.91038 475490.4841
 26517.27452 -32595.45371 475611.44
 21505.10497 -33666.81814 475789.814
 15566.81828 -34596.64513 475954.4281
 9441.545502 -35079.12919 476080.0177
 3166.577133 -35273.30724 476148.756
 -3166.576079 -35273.30627 476148.7561
 -9441.544336 -35079.126 476080.0179
 -15566.81672 -34596.64016 475954.4285
 -21505.10302 -33666.81128 475789.8146
 -26517.2721 -32595.44552 475611.4407
 -30664.86436 -30664.90101 475490.4849
 0 0 -0
 0 0 -0
 0 0 0
 0 0 0
 0 0 0
 24477.03342 -36218.68709 475458.6763
 20589.15948 -37076.65776 475576.7859
 14482.34469 -38949.53009 475652.2544
 8888.315122 -39612.1609 475734.9534
 3005.558547 -39847.0385 475788.8728
 -3005.557852 -39847.03751 475788.8728
 -8888.314251 -39612.15824 475734.9536
 -14482.34361 -38949.52563 475652.2548
 -20589.15789 -37076.65153 475576.7864
 -24477.0315 -36218.67973 475458.6769
 0 0 -0
 0 0 -0
 0 0 -0
 0 0 0
 0 0 0
 0 0 0
 0 0 0
 0 0 0
 11993.7982 -42206.31155 475443.6322
 8111.566557 -42429.57145 475505.8414
 2820.995948 -42586.3998 475552.6383
 -2820.995414 -42586.39899 475552.6384
 -8111.565952 -42429.56908 475505.8417
 -11993.79745 -42206.30811 475443.6325
 0 0 -0
 0 0 -0
 0 0 -0
 0 0 -0
 0 0 -0
 0 0 0
 0 0 0
 0 0 0
 0 0 0
 0 0 0
 8943.798884 31690.96242 476327.1593
 6099.524894 31870.10906 476360.1193
 2133.003143 31998.18304 476385.8078
 -2132.987968 31998.18389 476385.8078
 -6099.5098 31870.11137 476360.1193
 -8943.784046 31690.96582 476327.1593
 0 0 -0
 0 0 -0
 0 0 -0
 0 0 -0
 0 0 -0
 0 0 0
 0 0 0
 0 0 0
 18402.53645 27177.53578 476334.5458
 15532.70181 27909.02938 476394.4716
 10926.12863 29429.02381 476430.9221
 6736.207337 30013.53526 476472.1214
 2285.866747 30228.07051 476500.6924
 -2285.851895 30228.07134 476500.6924
 -6736.192739 30013.53805 476472.1215
 -10926.1141 29429.02817 476430.9222
 -15532.68787 27909.03561 476394.4717
 -18402.52279 27177.54303 476334.5459
 0 0 -0
 0 0 -0
 0 0 -0
 0 0 0
 0 0 0
 23043.56381 23043.49886 476350.5669
 20026.41642 24598.43198 476409.2055
 16339.11514 25550.89852 476499.7966
 11873.62133 26386.37218 476586.4536
 7226.296772 26842.25734 476654.1148
 2428.747094 27030.73519 476692.0514
 -2428.733091 27030.73635 476692.0514
 -7226.282746 26842.26036 476654.1148
 -11873.60767 26386.37728 476586.4537
 -16339.10158 25550.90524 476499.7967
 -20026.40342 24598.44013 476409.2056
 -23043.5512 23043.50809 476350.5671
 0 0 -0
 0 0 -0
 0 0 0
 27177.60344 18402.47378 476334.5443
 24598.49965 20026.35124 476409.2047
 21177.0611 21176.99431 476523.8066
 17061.24001 21926.40908 476655.0304
 12425.45129 22450.57201 476774.0044
 7540.341208 22755.18739 476861.8416
 2527.263181 22888.9912 476908.3542
 -2527.250267 22888.99231 476908.3542
 -7540.328383 22755.19096 476861.8417
 -12425.43851 22450.57753 476774.0045
 -17061.22752 21926.41661 476655.0305
 -21177.04878 21177.00318 476523.8068
 -24598.4878 20026.36137 476409.2049
 -27177.59209 18402.48467 476334.5446
 0 0 -0
 0 0 0
 27909.09873 15532.63664 476394.4696
 25550.96714 16339.04944 476499.7952
 21926.47744 17061.17399 476655.0296
 17565.20191 17565.13456 476817.3665
 12764.70091 17897.30315 476957.6713
 7732.537596 18090.83858 477058.4877
 2588.688021 18177.56577 477110.8321
 -2588.676561 18177.56704 477110.8321
 -7732.526183 18090.84238 477058.4878
 -12764.68946 17897.30938 476957.6714
 -17565.19055 17565.14255 476817.3667
 -21926.46624 17061.18374 476655.0297
 -25550.95617 16339.06019 476499.7954
 -27909.08803 15532.64821 476394.4699
 0 0 -0
 31691.0333 8943.734072 476327.1558
 29429.09438 10926.06251 476430.9193
 26386.44098 11873.55556 476586.4515
 22450.64064 12425.38544 476774.0029
 17897.37041 12764.63524 476957.6706
 12972.80262 12972.73699 477111.3977
 7847.089403 13090.82819 477219.9961
 2625.128134 13143.55463 477275.8395
 -2625.118385 13143.55612 477275.8395
 -7847.079527 13090.83222 477219.9962
 -12972.79279 12972.74351 477111.3978
 -17897.36042 12764.64394 476957.6707
 -22450.63071 12425.39565 476774.0031
 -26386.43111 11873.56717 476586.4517
 -29429.08482 10926.07473 476430.9196
 -31691.02424 8943.747048 476327.1561
 31870.17908 6099.459462 476360.1154
 30013.60605 6736.141558 476472.1179
 26842.32656 7226.230689 476654.1119
 22755.25648 7540.276491 476861.8394
 18090.90523 7732.474915 477058.4862
 13090.89234 7847.026847 477219.9954
 7910.747279 7910.68674 477332.9157
 2645.204744 7938.856572 477390.6668
 -2645.196732 7938.857818 477390.6668
 -7910.739257 7910.691167 477332.9158
 -13090.884 7847.03369 477219.9955
 -18090.89686 7732.483915 477058.4864
 -22755.24787 7540.287293 476861.8396
 -26842.31797 7226.242615 476654.1122
 -30013.59747 6736.15448 476472.1183
 -31870.17074 6099.472684 476360.1158
 31998.25177 2132.936464 476385.8035
 30228.13989 2285.800642 476500.6883
 27030.80454 2428.681935 476692.0478
 22889.05826 2527.199566 476908.3513
 18177.63092 2588.626329 477110.8299
 13143.61691 2625.068025 477275.8381
 7938.915279 2645.14755 477390.6661
 2654.040003 2653.983784 477449.2473
 -2654.033807 2653.985508 477449.2473
 -7938.908853 2645.151809 477390.6662
 -13143.61041 2625.075111 477275.8383
 -18177.62396 2588.635581 477110.8302
 -22889.05114 2527.210561 476908.3516
 -27030.79716 2428.694311 476692.0481
 -30228.13249 2285.813639 476500.6887
 -31998.24433 2132.950051 476385.8039
 31998.25194 -2133.054864 476385.8029
 30228.13975 -2285.917952 476500.6878
 27030.80413 -2428.797298 476692.0472
 22889.05785 -2527.31198 476908.3508
 18177.63009 -2588.736396 477110.8294
 13143.61617 -2625.175739 477275.8375
 7938.914886 -2645.250774 477390.6656
 2654.039858 -2654.086461 477449.2467
 -2654.03529 -2654.085198 477449.2468
 -7938.910218 -2645.24623 477390.6657
 -13143.6111 -2625.168776 477275.8377
 -18177.62476 -2588.727125 477110.8296
 -22889.05207 -2527.300919 476908.3511
 -27030.79806 -2428.785044 476692.0476
 -30228.13339 -2285.904655 476500.6882
 -31998.24551 -2133.041298 476385.8034
 31870.17833 -6099.57553 476360.114
 30013.60465 -6736.257377 476472.1164
 26842.32492 -7226.345614 476654.1102
 22755.25484 -7540.388141 476861.8377
 18090.90364 -7732.582621 477058.4845
 13090.89014 -7847.133662 477219.9937
 7910.745092 -7910.790217 477332.914
 2645.202563 -7938.957421 477390.6651
 -2645.199505 -7938.955706 477390.6652
 -7910.741828 -7910.786089 477332.9141
 -13090.8866 -7847.126745 477219.9939
 -18090.89962 -7732.57355 477058.4848
 -22755.2504 -7540.377351 476861.838
 -26842.32 -7226.333375 476654.1107
 -30013.59943 -6736.244498 476472.1169
 -31870.17275 -6099.561998 476360.1145
 31691.03124 -8943.848087 476327.1538
 29429.09149 -10926.17696 476430.9168
 26386.43807 -11873.66823 476586.4488
 22450.63834 -12425.49654 476774.0001
 17897.36807 -12764.74486 476957.6677
 12972.80028 -12972.84569 477111.3948
 7847.086251 -13090.93276 477219.9933
 2625.12467 -13143.65614 477275.8367
 -2625.122879 -13143.655 477275.8368
 -7847.084264 -13090.92852 477219.9935
 -12972.79796 -12972.83918 477111.395
 -17897.36529 -12764.73619 476957.6681
 -22450.63507 -12425.48608 476774.0005
 -26386.43433 -11873.65665 476586.4493
 -29429.08722 -10926.16431 476430.9174
 -31691.02631 -8943.834879 476327.1543
 0 0 0
 27909.09597 -15532.74891 476394.4661
 25550.96415 -16339.16048 476499.7916
 21926.47483 -17061.28356 476655.0258
 17565.19891 -17565.24461 476817.3626
 12764.69743 -17897.41112 476957.6674
 7732.533679 -18090.94435 477058.4838
 2588.682964 -18177.66876 477110.8282
 -2588.682209 -18177.66727 477110.8282
 -7732.532733 -18090.94068 477058.4839
 -12764.69616 -17897.40496 476957.6676
 -17565.19718 -17565.23647 476817.363
 -21926.4726 -17061.27383 476655.0262
 -25550.96144 -16339.14942 476499.7921
 -27909.09286 -15532.73717 476394.4667
 0 0 -0
 0 0 0
 27177.60226 -18402.58284 476334.5402
 24598.49716 -20026.46075 476409.2003
 21177.05836 -21177.10406 476523.8019
 17061.2364 -21926.51913 476655.0254
 12425.44657 -22450.68018 476773.9994
 7540.335513 -22755.29436 476861.8366
 2527.256951 -22889.09509 476908.3493
 -2527.256985 -22889.09407 476908.3493
 -7540.335415 -22755.29074 476861.8368
 -12425.4461 -22450.67464 476773.9997
 -17061.23554 -21926.5116 476655.0258
 -21177.057 -21177.095 476523.8023
 -24598.49525 -20026.45049 476409.2008
 -27177.59978 -18402.57161 476334.5408
 0 0 -0
 0 0 0
 0 0 0
 23043.56127 -23043.60655 476350.5619
 20026.41375 -24598.54251 476409.1999
 16339.11093 -25551.00731 476499.791
 11873.61583 -26386.47858 476586.4479
 7226.290667 -26842.36312 476654.1089
 2428.740368 -27030.84064 476692.0454
 -2428.741012 -27030.83943 476692.0455
 -7226.291134 -26842.36009 476654.1091
 -11873.61604 -26386.47342 476586.4481
 -16339.11068 -25551.00051 476499.7913
 -20026.41306 -24598.53423 476409.2004
 -23043.56007 -23043.59713 476350.5624
 0 0 -0
 0 0 -0
 0 0 0
 0 0 0
 0 0 0
 18402.53473 -27177.64548 476334.5396
 15532.69736 -27909.13881 476394.4653
 10926.12238 -29429.13191 476430.9156
 6736.201115 -30013.64279 476472.1148
 2285.859713 -30228.17519 476500.6858
 -2285.860739 -30228.17434 476500.6858
 -6736.202051 -30013.63994 476472.1149
 -10926.12301 -29429.12755 476430.9159
 -15532.69755 -27909.13252 476394.4657
 -18402.53457 -27177.6381 476334.54
 0 0 -0
 0 0 -0
 0 0 -0
 0 0 0
 0 0 0
 0 0 0
 0 0 0
 0 0 0
 8943.79182 -31691.0699 476327.1523
 6099.518682 -31870.21493 476360.1123
 2132.995937 -31998.28593 476385.8009
 -2132.997194 -31998.28507 476385.801
 -6099.519818 -31870.21257 476360.1124
 -8943.792855 -31691.0664 476327.1525
 0 0 -0
 0 0 -0
 0 0 -0
 0 0 -0
 0 0 -0
 0 0 0
 0 0 0
 0 0 0
 0 0 0
 0 0 0
 5494.433205 19524.41976 477032.9963
 3758.642724 19639.79184 477045.0948
 1317.619715 19723.02474 477054.6483
 -1317.607047 19723.02552 477054.6483
 -3758.63022 19639.79419 477045.0948
 -5494.420821 19524.42317 477032.9963
 0 0 -0
 0 0 -0
 0 0 -0
 0 0 -0
 0 0 -0
 0 0 0
 0 0 0
 0 0 0
 11348.16964 16741.29332 477035.4488
 9593.223586 17219.71362 477056.9388
 6749.74129 18187.97966 477069.7116
 4169.994834 18576.98473 477084.2463
 1417.53977 18723.90005 477094.6211
 -1417.527532 18723.90106 477094.6211
 -4169.982603 18576.98739 477084.2463
 -6749.729466 18187.9841 477069.7116
 -9593.212036 17219.71985 477056.9388
 -11348.15855 16741.30063 477035.4488
 0 0 -0
 0 0 -0
 0 0 -0
 0 0 0
 0 0 0
 14206.08639 14206.02428 477041.1379
 12375.85225 15193.81762 477061.6915
 10130.47348 15832.23998 477093.8953
 7380.571336 16398.6261 477125.2283
 4501.663955 16717.6217 477150.0052
 1515.042081 16852.53131 477164.0893
 -1515.030507 16852.53227 477164.0893
 -4501.652577 16717.62489 477150.0052
 -7380.559984 16398.63109 477125.2284
 -10130.46267 15832.24686 477093.8954
 -12375.84159 15193.82582 477061.6915
 -14206.07634 14206.03363 477041.138
 0 0 -0
 0 0 -0
 0 0 0
 16741.35761 11348.1098 477035.448
 15193.88177 12375.79026 477061.6911
 13138.32233 13138.25853 477102.3391
 10630.54983 13658.66463 477150.1898
 7767.141606 14030.91869 477194.5894
 4723.718339 14252.10466 477227.8652
 1585.002955 14350.83593 477245.6522
 -1584.992487 14350.83717 477245.6522
 -4723.707896 14252.10808 477227.8652
 -7767.131386 14030.92437 477194.5894
 -10630.53967 13658.67204 477150.1898
 -13138.31267 13138.26758 477102.3391
 -15193.87236 12375.8004 477061.6911
 -16741.34877 11348.1209 477035.448
 0 0 -0
 0 0 0
 17219.77986 9593.161365 477056.9376
 15832.30553 10130.41036 477093.8945
 13658.72925 10630.4867 477150.1893
 10991.61168 10991.54714 477210.8985
 8013.403635 11234.47635 477264.5422
 4864.079194 11378.31001 477303.6204
 1629.961044 11443.50415 477324.0626
 -1629.951914 11443.50545 477324.0626
 -4864.070084 11378.31384 477303.6204
 -8013.394582 11234.4824 477264.5422
 -10991.6028 10991.55533 477210.8985
 -13658.72047 10630.49635 477150.1894
 -15832.29707 10130.42134 477093.8946
 -17219.77169 9593.172999 477056.9377
 0 0 -0
 19524.48687 5494.370986 477032.9942
 18188.04672 6749.678399 477069.7099
 16398.69222 7380.508229 477125.2271
 14030.98438 7767.07866 477194.5885
 11234.54057 8013.340456 477264.5417
 8167.727812 8167.664626 477324.2596
 4949.503632 8256.486912 477366.9491
 1657.183299 8296.515722 477389.0372
 -1657.175708 8296.517031 477389.0372
 -4949.496042 8256.491039 477366.9491
 -8167.720196 8167.671188 477324.2596
 -11234.53297 8013.349059 477264.5417
 -14030.97686 7767.089049 477194.5885
 -16398.68488 7380.519726 477125.2271
 -18188.03958 6749.690949 477069.71
 -19524.48037 5494.384042 477032.9944
 19639.85778 3758.580558 477045.0926
 18577.0514 4169.932205 477084.2443
 16717.68804 4501.600781 477150.0035
 14252.17007 4723.656309 477227.8638
 11378.37396 4864.0189 477303.6195
 8256.548537 4949.44388 477366.9487
 4997.631212 4997.572679 477411.6874
 1672.387262 5019.055304 477434.6903
 -1672.381326 5019.056923 477434.6903
 -4997.62522 4997.576852 477411.6874
 -8256.542495 4949.450735 477366.9487
 -11378.36779 4864.027938 477303.6196
 -14252.1639 4723.667028 477227.8639
 -16717.68185 4501.612915 477150.0036
 -18577.04541 4169.945032 477084.2444
 -19639.85189 3758.593991 477045.0927
 19723.08952 1317.556118 477054.6458
 18723.96545 1417.476749 477094.6187
 16852.597 1514.979306 477164.0872
 14350.90109 1584.941821 477245.6505
 11443.56662 1629.901902 477324.0613
 8296.575638 1657.125235 477389.0364
 5019.112174 1672.331832 477434.6899
 1679.136024 1679.08232 477458.095
 -1679.131764 1679.083626 477458.095
 -5019.107845 1672.336327 477434.6899
 -8296.571089 1657.132162 477389.0364
 -11443.56201 1629.911144 477324.0614
 -14350.89624 1584.952833 477245.6506
 -16852.59208 1514.991562 477164.0873
 -18723.96045 1417.490031 477094.6188
 -19723.0846 1317.569682 477054.646
 19723.08974 -1317.670804 477054.6455
 18723.96523 -1417.590474 477094.6184
 16852.59659 -1515.092194 477164.0869
 14350.90059 -1585.051849 477245.6501
 11443.5661 -1630.009155 477324.0609
 8296.574838 -1657.231433 477389.036
 5019.112274 -1672.433924 477434.6895
 1679.135752 -1679.182462 477458.0946
 -1679.133076 -1679.180778 477458.0947
 -5019.10952 -1672.429686 477434.6896