# OOMMF OVF 2.0
#
# Segment count: 1
#
# Begin: Segment
# Begin: Header
#
# Title: Oxs_MinDriver::Magnetization
# Desc: Oxs vector field output
# Desc:  MIF source file: F:/Bogdan/UNIC/2022/Master_degree/Samples/Cylinder11_7.mif
# Desc:  Iteration: 404, State id: 8065
# Desc:  Stage: 0, Stage iteration: 404
# Desc:  Stage simulation time: -1 s
# Desc:  Total simulation time: -2 s
# meshunit: m
# meshtype: rectangular
# xbase: -3.5000000000000003e-09
# ybase: -3.5000000000000003e-09
# zbase: -9.5000000000000007e-09
# xnodes: 8
# ynodes: 8
# znodes: 20
# xstepsize: 1.0000000000000001e-09
# ystepsize: 1.0000000000000001e-09
# zstepsize: 1.0000000000000001e-09
# xmin: -4.0000000000000002e-09
# ymin: -4.0000000000000002e-09
# zmin: -1e-08
# xmax: 4.0000000000000002e-09
# ymax: 4.0000000000000002e-09
# zmax: 1e-08
# valuedim: 3
# valuelabels: Magnetization_x Magnetization_y Magnetization_z
# valueunits: A/m A/m A/m
#
# End: Header
#
# Begin: Data Text
 0 0 0
 0 0 0
 -496.5318889 -477410.3003 -7143.524817
 -190.8989322 -477409.0399 -7241.786093
 190.9017323 -477409.0399 -7241.786504
 496.5343646 -477410.3003 -7143.525872
 0 0 -0
 0 0 -0
 0 0 0
 -195.7236955 -477437.9895 -4979.876025
 -128.1670559 -477431.3983 -5578.062332
 -67.46734282 -477429.2374 -5761.079128
 67.46994898 -477429.2374 -5761.079581
 128.1690414 -477431.3983 -5578.063742
 195.724944 -477437.9895 -4979.878213
 0 0 -0
 -497.192835 -477457.3834 -2463.962642
 -128.780921 -477453.4576 -3170.251614
 -46.78856087 -477451.0277 -3519.263795
 -18.43873752 -477450.0335 -3651.912048
 18.44115481 -477450.0335 -3651.91261
 46.79042703 -477451.0277 -3519.265416
 128.7819168 -477453.4576 -3170.254404
 497.1933741 -477457.3834 -2463.966343
 -191.130853 -477463.0471 -934.5750812
 -67.86491034 -477462.7364 -1096.379047
 -18.5899097 -477462.4858 -1202.330765
 -4.61622883 -477462.3702 -1247.514463
 4.618671251 -477462.3702 -1247.514981
 18.59190605 -477462.4858 -1202.332547
 67.8662847 -477462.7364 -1096.381819
 191.1320071 -477463.0471 -934.5782969
 191.1324169 -477463.0471 934.578107
 67.86659271 -477462.7364 1096.381554
 18.59216174 -477462.4858 1202.332302
 4.618906052 -477462.3702 1247.514867
 -4.615953158 -477462.3702 1247.514498
 -18.58952645 -477462.4858 1202.330875
 -67.86440008 -477462.7364 1096.379065
 -191.1302195 -477463.0471 934.5749441
 497.1944862 -477457.3834 2463.966082
 128.7827976 -477453.4576 3170.253775
 46.79108731 -477451.0277 3519.264816
 18.44172179 -477450.0335 3651.912389
 -18.4380998 -477450.0335 3651.912268
 -46.78778521 -477451.0277 3519.264306
 -128.779868 -477453.4576 3170.252049
 -497.1914918 -477457.3834 2463.962589
 0 0 0
 195.7258036 -477437.9895 4979.877091
 128.1696836 -477431.3983 5578.062865
 67.47054774 -477429.2374 5761.079265
 -67.46673608 -477429.2374 5761.079532
 -128.1662858 -477431.3983 5578.063243
 -195.7226691 -477437.9895 4979.877054
 0 0 -0
 0 0 0
 0 0 0
 496.534802 -477410.3003 7143.524974
 190.9021862 -477409.0399 7241.786209
 -190.8984331 -477409.0399 7241.786567
 -496.5313702 -477410.3003 7143.525872
 0 0 -0
 0 0 -0
 0 0 0
 0 0 0
 -557.419913 -477423.3586 -6204.614294
 -212.9475446 -477422.4028 -6298.827166
 212.9501724 -477422.4028 -6298.827673
 557.4223069 -477423.3586 -6204.615494
 0 0 -0
 0 0 -0
 0 0 0
 -218.2222312 -477444.4867 -4311.121203
 -132.7630378 -477438.6773 -4915.59991
 -70.90426938 -477436.5541 -5118.894089
 70.90672075 -477436.5541 -5118.894537
 132.765149 -477438.6772 -4915.601276
 218.2234274 -477444.4867 -4311.12318
 0 0 -0
 -559.2624487 -477459.1154 -2086.058007
 -133.8010198 -477455.9458 -2770.059652
 -41.0922364 -477453.6696 -3140.540835
 -16.35048158 -477452.6797 -3287.80812
 16.35273871 -477452.6797 -3287.8086
 41.09398656 -477453.6696 -3140.542338
 133.8019749 -477455.9458 -2770.062128
 559.2626282 -477459.1154 -2086.061404
 -213.2603243 -477463.2675 -808.7188157
 -71.41810722 -477463.0133 -968.0622091
 -16.5334518 -477462.7777 -1080.235186
 -3.578393846 -477462.6631 -1129.887736
 3.580730902 -477462.6631 -1129.88813
 16.53528951 -477462.7777 -1080.236692
 71.41926528 -477463.0133 -968.064618
 213.2611068 -477463.2675 -808.72181
 213.2614495 -477463.2675 808.7216581
 71.41957083 -477463.0133 968.0644032
 16.53549279 -477462.7777 1080.236492
 3.580907934 -477462.6631 1129.888053
 -3.578175721 -477462.6631 1129.887784
 -16.53312993 -477462.7777 1080.23527
 -71.41765793 -477463.0133 968.062253
 -213.2597718 -477463.2675 808.7187158
 559.26362 -477459.1154 2086.061187
 133.8027186 -477455.9458 2770.061585
 41.09450487 -477453.6696 3140.541836
 16.35316227 -477452.6797 3287.80839
 -16.35004987 -477452.6797 3287.808323
 -41.09161125 -477453.6696 3140.541315
 -133.8000831 -477455.9458 2770.060045
 -559.2612719 -477459.1154 2086.057987
 0 0 0
 218.224157 -477444.4867 4311.122173
 132.7655632 -477438.6773 4915.600472
 70.9070017 -477436.5541 5118.894271
 -70.90390236 -477436.5541 5118.894458
 -132.7625484 -477438.6773 4915.600759
 -218.2213567 -477444.4867 4311.122148
 0 0 -0
 0 0 0
 0 0 0
 557.4223915 -477423.3586 6204.614685
 212.950256 -477422.4028 6298.82739
 -212.9474522 -477422.4028 6298.827619
 -557.419739 -477423.3586 6204.61525
 0 0 -0
 0 0 -0
 0 0 0
 0 0 0
 -628.7544387 -477436.7404 -5063.090008
 -239.8470905 -477436.2203 -5144.837559
 239.8500314 -477436.2203 -5144.83792
 628.7568387 -477436.7404 -5063.09126
 0 0 -0
 0 0 -0
 0 0 0
 -284.7814317 -477451.0198 -3509.120848
 -175.4178546 -477446.8916 -4038.094846
 -85.80635429 -477445.2715 -4228.079036
 85.8089392 -477445.2715 -4228.079496
 175.4197158 -477446.8916 -4038.096146
 284.7828057 -477451.0197 -3509.123082
 0 0 -0
 -631.491466 -477460.6547 -1672.033079
 -176.8027266 -477458.6156 -2260.624829
 -61.81777396 -477456.91 -2601.257442
 -22.68287467 -477456.114 -2744.086081
 22.68517527 -477456.114 -2744.086432
 61.81919369 -477456.91 -2601.258923
 176.8033414 -477458.6156 -2260.627121
 631.4912752 -477460.6547 -1672.035791
 -240.3811286 -477463.4928 -653.1141522
 -86.45565698 -477463.3319 -794.0398208
 -22.89934219 -477463.1521 -899.5409936
 -5.326090303 -477463.058 -948.4206863
 5.328147404 -477463.058 -948.4209728
 22.90066791 -477463.1521 -899.5423487
 86.45620297 -477463.3319 -794.0421334
 240.381075 -477463.4928 -653.1166127
 240.3813709 -477463.4928 653.1165574
 86.45641505 -477463.3319 794.0419842
 22.90082219 -477463.1521 899.5422429
 5.328273174 -477463.058 948.4209207
 -5.325918353 -477463.058 948.4207294
 -22.89912088 -477463.1521 899.5411003
 -86.45528237 -477463.3319 794.0398604
 -240.3806787 -477463.4928 653.1140819
 631.4920645 -477460.6547 1672.0357
 176.8039639 -477458.6156 2260.626752
 61.81953605 -477456.91 2601.258542
 22.68538947 -477456.114 2744.086297
 -22.68265972 -477456.114 2744.086281
 -61.81730593 -477456.91 2601.257801
 -176.8019997 -477458.6156 2260.625142
 -631.4904971 -477460.6547 1672.033042
 0 0 0
 284.7833785 -477451.0197 3509.122295
 175.4198874 -477446.8916 4038.095512
 85.80887668 -477445.2715 4228.079285
 -85.80637904 -477445.2715 4228.079351
 -175.4176091 -477446.8916 4038.095527
 -284.7807195 -477451.0198 3509.121634
 0 0 -0
 0 0 0
 0 0 0
 628.7565299 -477436.7404 5063.09062
 239.849631 -477436.2203 5144.83769
 -239.8474615 -477436.2203 5144.837945
 -628.7546864 -477436.7404 5063.090802
 0 0 -0
 0 0 -0
 0 0 0
 0 0 0
 -691.7056861 -477446.924 -3978.390579
 -264.1667559 -477446.7982 -4044.307469
 264.1698591 -477446.7982 -4044.30786
 691.7084355 -477446.924 -3978.391765
 0 0 -0
 0 0 -0
 0 0 0
 -358.8300879 -477455.939 -2751.157284
 -226.8570842 -477453.357 -3179.890542
 -104.1002123 -477452.3151 -3338.746891
 104.1029326 -477452.3151 -3338.747229
 226.8590412 -477453.357 -3179.891816
 358.8309545 -477455.939 -2751.159168
 0 0 -0
 -695.0687831 -477461.729 -1298.288816
 -228.4798502 -477460.6557 -1772.376227
 -93.67226017 -477459.5643 -2055.971024
 -33.38014224 -477459.028 -2178.713605
 33.38198683 -477459.028 -2178.714091
 93.6734381 -477459.5643 -2055.972368
 228.4800195 -477460.6557 -1772.378373
 695.0681959 -477461.729 -1298.291429
 -264.9033203 -477463.656 -508.2808092
 -104.8581908 -477463.5813 -623.5960432
 -33.62249016 -477463.4665 -712.937591
 -8.816166908 -477463.4021 -755.5849614
 8.817575929 -477463.4021 -755.5853827
 33.62314289 -477463.4665 -712.9391036
 104.8581804 -477463.5813 -623.598232
 264.9027802 -477463.656 -508.2833048
 264.9029664 -477463.656 508.28333
 104.8583479 -477463.5813 623.5982145
 33.62321854 -477463.4665 712.9390287
 8.817610375 -477463.4021 755.5853928
 -8.81612044 -477463.4021 755.5850184
 -33.62231232 -477463.4665 712.9376588
 -104.8579011 -477463.5813 623.5960709
 -264.9029684 -477463.656 508.2807338
 695.0687742 -477461.729 1298.291502
 228.4804795 -477460.6557 1772.378185
 93.67361289 -477459.5643 2055.97216
 33.38196363 -477459.028 2178.714009
 -33.38009723 -477459.028 2178.713745
 -93.67203451 -477459.5643 2055.971294
 -228.479238 -477460.6557 1772.376415
 -695.0680457 -477461.729 1298.288711
 0 0 0
 358.8314203 -477455.939 2751.158639
 226.8589458 -477453.357 3179.891395
 104.1026046 -477452.3151 3338.74706
 -104.1005437 -477452.3151 3338.747157
 -226.8570801 -477453.357 3179.891077
 -358.8295048 -477455.939 2751.157833
 0 0 -0
 0 0 0
 0 0 0
 691.7078012 -477446.924 3978.391247
 264.1690762 -477446.7982 4044.307694
 -264.1675106 -477446.7982 4044.307794
 -691.7062676 -477446.924 3978.391219
 0 0 -0
 0 0 -0
 0 0 0
 0 0 0
 -740.9116792 -477453.7686 -3036.634601
 -283.413248 -477453.9348 -3087.253452
 283.4159269 -477453.9348 -3087.254084
 740.9140089 -477453.7686 -3036.636231
 0 0 -0
 0 0 -0
 0 0 0
 -422.0860089 -477459.2139 -2095.758937
 -271.781668 -477457.7503 -2427.78019
 -120.3527196 -477457.1627 -2552.364071
 120.3546914 -477457.1627 -2552.364729
 271.7830674 -477457.7503 -2427.781694
 422.0865301 -477459.2139 -2095.760897
 0 0 -0
 -744.704915 -477462.4072 -983.0820372
 -273.5642923 -477462.0155 -1349.161231
 -123.878445 -477461.3977 -1571.514224
 -43.93665657 -477461.0801 -1669.242575
 43.93779657 -477461.0801 -1669.243383
 123.8788958 -477461.3977 -1571.515809
 273.5641073 -477462.0155 -1349.163381
 744.7041836 -477462.4072 -983.0844742
 -284.3031889 -477463.76 -385.1349196
 -121.189296 -477463.7485 -474.8461695
 -44.19757622 -477463.6863 -545.5305011
 -12.45001006 -477463.6478 -579.8041684
 12.45053368 -477463.6478 -579.8048568
 44.19768973 -477463.6863 -545.5321257
 121.1889901 -477463.7485 -474.848679
 284.3026658 -477463.76 -385.137836
 284.3027483 -477463.76 385.1379109
 121.1890423 -477463.7485 474.8486974
 44.19768346 -477463.6863 545.5321142
 12.45048342 -477463.6478 579.8048649
 -12.45003323 -477463.6478 579.8042237
 -44.19747566 -477463.6863 545.5305777
 -121.1890931 -477463.7485 474.8461552
 -284.3029086 -477463.76 385.1348464
 744.7045072 -477462.4072 983.084623
 273.5643462 -477462.0155 1349.16329
 123.8788839 -477461.3977 1571.515654
 43.93755477 -477461.0801 1669.243336
 -43.93683316 -477461.0801 1669.242703
 -123.8783783 -477461.3977 1571.514438
 -273.5638922 -477462.0155 1349.161348
 -744.7044071 -477462.4072 983.0818872
 0 0 0
 422.0867713 -477459.2139 2095.760524
 271.7827727 -477457.7503 2427.781305
 120.3541077 -477457.1627 2552.3646
 -120.3533079 -477457.1627 2552.364328
 -271.7818672 -477457.7503 2427.78064
 -422.0856418 -477459.2139 2095.759375
 0 0 -0
 0 0 0
 0 0 0
 740.9131495 -477453.7686 3036.635728
 283.4148848 -477453.9348 3087.253907
 -283.4142531 -477453.9348 3087.253763
 -740.9124832 -477453.7686 3036.635248
 0 0 -0
 0 0 -0
 0 0 0
 0 0 0
 -776.7346888 -477458.0602 -2251.380709
 -297.5115714 -477458.4214 -2288.805258
 297.5140218 -477458.4214 -2288.806127
 776.7367122 -477458.0602 -2251.383103
 0 0 -0
 0 0 -0
 0 0 0
 -469.9784461 -477461.2487 -1551.25975
 -306.0545419 -477460.512 -1799.202466
 -132.8631228 -477460.2304 -1892.614824
 132.8647707 -477460.2304 -1892.615623
 306.0556018 -477460.512 -1799.204479
 469.978794 -477461.2487 -1551.262542
 0 0 -0
 -780.8165231 -477462.8112 -724.9279773
 -307.9435717 -477462.8581 -997.8037749
 -147.7432404 -477462.5566 -1164.684237
 -52.43761162 -477462.3908 -1238.516584
 52.43840193 -477462.3908 -1238.517346
 147.7435484 -477462.5566 -1164.686091
 307.9433998 -477462.8581 -997.8063529
 780.816047 -477462.8112 -724.9306155
 -298.5102088 -477463.8222 -284.04941
 -133.7545767 -477463.8522 -351.1329773
 -52.71152753 -477463.8258 -404.4021252
 -15.44837739 -477463.8057 -430.4196359
 15.44869078 -477463.8057 -430.4202451
 52.71144014 -477463.8258 -404.403668
 133.7542286 -477463.8521 -351.1354962
 298.5098348 -477463.8222 -284.0520518
 298.5098271 -477463.8222 284.0520952
 133.7541997 -477463.8521 351.1354747
 52.71135429 -477463.8258 404.4036348
 15.44856456 -477463.8057 430.4202388
 -15.44844048 -477463.8057 430.419698
 -52.7115024 -477463.8258 404.4022087
 -133.7544056 -477463.8522 351.1329993
 -298.5099857 -477463.8222 284.0493377
 780.8161899 -477462.8112 724.9306663
 307.9434678 -477462.8581 997.8061875
 147.7433526 -477462.5566 1164.685866
 52.43804823 -477462.3908 1238.517272
 -52.43796771 -477462.3908 1238.516747
 -147.7432948 -477462.5566 1164.6845
 -307.9433429 -477462.8581 997.803967
 -780.8161517 -477462.8112 724.9279082
 0 0 0
 469.9788075 -477461.2487 1551.262067
 306.0551619 -477460.512 1799.204008
 132.8640051 -477460.2304 1892.615453
 -132.8638122 -477460.2304 1892.615093
 -306.0549097 -477460.512 1799.203046
 -469.978289 -477461.2487 1551.260264
 0 0 -0
 0 0 0
 0 0 0
 776.7357815 -477458.0602 2251.382427
 297.5129241 -477458.4214 2288.805882
 -297.5126615 -477458.4214 2288.805653
 -776.7355469 -477458.0602 2251.381509
 0 0 -0
 0 0 -0
 0 0 0
 0 0 0
 -801.4990477 -477460.6288 -1605.243842
 -307.2871148 -477461.1127 -1631.778285
 307.2890617 -477461.1127 -1631.779351
 801.5004461 -477460.6288 -1605.246405
 0 0 -0
 0 0 -0
 0 0 0
 -503.7055368 -477462.4565 -1104.642521
 -330.2567542 -477462.1644 -1282.096001
 -141.7352231 -477462.0733 -1348.985538
 141.7366197 -477462.0733 -1348.986485
 330.2574614 -477462.1644 -1282.098525
 503.7054531 -477462.4565 -1104.645758
 0 0 -0
 -805.7679884 -477463.0424 -514.9894617
 -332.2145932 -477463.3565 -710.0226118
 -164.8641085 -477463.2507 -829.6579027
 -58.59238537 -477463.1804 -882.7172196
 58.59315725 -477463.1804 -882.7179226
 164.8643746 -477463.2507 -829.659896
 332.214365 -477463.3565 -710.0252731
 805.7675585 -477463.0424 -514.9923518
 -308.3595222 -477463.8578 -201.7920839
 -142.6636973 -477463.9133 -249.7961597
 -58.87518216 -477463.9095 -288.0469712
 -17.64481126 -477463.9011 -306.7858911
 17.64498366 -477463.9011 -306.7863395
 58.87494042 -477463.9095 -288.0484971
 142.663158 -477463.9133 -249.7985306
 308.3589257 -477463.8578 -201.7949681
 308.3588302 -477463.8578 201.794894
 142.6630633 -477463.9133 249.7984182
 58.87480653 -477463.9095 288.048391
 17.64481346 -477463.9011 306.7863299
 -17.6449323 -477463.9011 306.7859522
 -58.87517493 -477463.9095 288.0470722
 -142.6635836 -477463.9133 249.7962509
 -308.3593527 -477463.8578 201.7920748
 805.7675533 -477463.0424 514.9921833
 332.2142732 -477463.3565 710.024922
 164.8640797 -477463.2507 829.6595423
 58.59272643 -477463.1804 882.7178013
 -58.59279999 -477463.1804 882.7174055
 -164.8642622 -477463.2507 829.6583036
 -332.2144886 -477463.3565 710.0229392
 -805.7677425 -477463.0424 514.9895693
 0 0 0
 503.7053464 -477462.4565 1104.645087
 330.2569823 -477462.1644 1282.097858
 141.7358855 -477462.0733 1348.986245
 -141.7358834 -477462.0733 1348.985882
 -330.257164 -477462.1644 1282.096753
 -503.7054888 -477462.4565 1104.64322
 0 0 -0
 0 0 0
 0 0 0
 801.4996052 -477460.6288 1605.245497
 307.2880838 -477461.1127 1631.77903
 -307.2880768 -477461.1127 1631.77876
 -801.4998112 -477460.6288 1605.244881
 0 0 -0
 0 0 -0
 0 0 0
 0 0 0
 -817.7234496 -477462.1028 -1069.107608
 -313.7009079 -477462.6603 -1086.683357
 313.7019724 -477462.6603 -1086.684552
 817.7241677 -477462.1028 -1069.110672
 0 0 -0
 0 0 -0
 0 0 0
 -526.0016828 -477463.1445 -735.0237286
 -346.2712938 -477463.1117 -853.4511794
 -147.6173484 -477463.1326 -898.0615527
 147.6181486 -477463.1326 -898.0627595
 346.2717009 -477463.1117 -853.454085
 526.001592 -477463.1445 -735.0276841
 0 0 -0
 -822.1083171 -477463.1696 -342.1655339
 -348.2718787 -477463.6395 -472.1933507
 -176.2750891 -477463.6483 -552.0578097
 -62.71265072 -477463.6344 -587.5025722
 62.71295059 -477463.6344 -587.5035817
 176.2750171 -477463.6483 -552.0602979
 348.271424 -477463.6395 -472.1966679
 822.1075581 -477463.1696 -342.1689315
 -314.8203986 -477463.8774 -134.0692521
 -148.5692825 -477463.948 -166.0839605
 -63.00104803 -477463.9574 -191.632477
 -19.12352645 -477463.956 -204.1624157
 19.1233729 -477463.956 -204.1631788
 63.00077395 -477463.9574 -191.6344683
 148.5687001 -477463.948 -166.0868345
 314.8195597 -477463.8774 -134.0722206
 314.8194434 -477463.8774 134.0720642
 148.5685602 -477463.948 166.0866661
 63.00060017 -477463.9574 191.6343313
 19.12319555 -477463.956 204.1631321
 -19.12366743 -477463.956 204.1624814
 -63.00107792 -477463.9574 191.6326147
 -148.5692008 -477463.948 166.0840488
 -314.8202493 -477463.8774 134.0693057
 822.1074498 -477463.1696 342.1685985
 348.2712657 -477463.6395 472.1962171
 176.2746963 -477463.6483 552.0598749
 62.71246694 -477463.6344 587.5034292
 -62.71305525 -477463.6344 587.5027698
 -176.2753099 -477463.6483 552.0582487
 -348.271845 -477463.6395 472.19377
 -822.1081665 -477463.1696 342.1657614
 0 0 0
 526.0013885 -477463.1445 735.0269253
 346.2712188 -477463.1117 853.453332
 147.617476 -477463.1326 898.0624899
 -147.6180328 -477463.1326 898.0619321
 -346.2716499 -477463.1117 853.4519834
 -526.0017401 -477463.1445 735.024496
 0 0 -0
 0 0 0
 0 0 0
 817.7234875 -477462.1028 1069.109649
 313.701124 -477462.6603 1086.684183
 -313.7017186 -477462.6603 1086.68386
 -817.724074 -477462.1028 1069.108763
 0 0 -0
 0 0 -0
 0 0 0
 0 0 0
 -827.4291905 -477462.8923 -610.8177109
 -317.5401943 -477463.4908 -620.8190727
 317.5406512 -477463.4908 -620.8202904
 827.4294863 -477462.8923 -610.8209203
 0 0 -0
 0 0 -0
 0 0 0
 -539.397685 -477463.5109 -419.6949526
 -355.8957725 -477463.6186 -487.4293262
 -151.155328 -477463.7006 -512.9243756
 151.1558848 -477463.7006 -512.9253011
 355.8960612 -477463.6186 -487.4322304
 539.3976961 -477463.5109 -419.698659
 0 0 -0
 -831.8797705 -477463.2354 -195.2072439
 -357.92069 -477463.7898 -269.5260089
 -183.1549509 -477463.8608 -315.1981985
 -65.20159557 -477463.8777 -335.4695999
 65.20179846 -477463.8777 -335.4704633
 183.1549205 -477463.8608 -315.2006571
 357.9204485 -477463.7898 -269.5294825
 831.8794636 -477463.2354 -195.210806
 -318.6869229 -477463.8875 -76.48431444
 -152.1208971 -477463.9664 -94.78338948
 -65.4933728 -477463.983 -109.3953001
 -20.01906218 -477463.9854 -116.5641613
 20.01893289 -477463.9854 -116.5648311
 65.49305339 -477463.983 -109.3975851
 152.1204709 -477463.9664 -94.78645477
 318.6864269 -477463.8875 -76.48746885
 318.6862803 -477463.8875 76.48730828
 152.1203361 -477463.9664 94.78631672
 65.49290037 -477463.983 109.3974635
 20.01876964 -477463.9854 116.5647853
 -20.0191909 -477463.9854 116.5642205
 -65.49339896 -477463.983 109.3953983
 -152.1208388 -477463.9664 94.78347659
 -318.6868256 -477463.8875 76.48437053
 831.8793016 -477463.2354 195.2104919
 357.9202516 -477463.7898 269.5290886
 183.1546191 -477463.8608 315.2002879
 65.20136347 -477463.8777 335.4703415
 -65.2019538 -477463.8777 335.4697535
 -183.1551678 -477463.8608 315.1985709
 -357.9206982 -477463.7898 269.5263564
 -831.8796945 -477463.2354 195.2074735
 0 0 0
 539.3974858 -477463.5109 419.6980125
 355.8956225 -477463.6186 487.4315802
 151.1553392 -477463.7006 512.9250506
 -151.1558947 -477463.7006 512.9246925
 -355.8961048 -477463.6186 487.4300376
 -539.3977584 -477463.5109 419.6955926
 0 0 -0
 0 0 0
 0 0 0
 827.4289573 -477462.8923 610.8199439
 317.5399701 -477463.4908 620.8199296
 -317.5408387 -477463.4908 620.8195415
 -827.4296816 -477462.8923 610.8187749
 0 0 -0
 0 0 -0
 0 0 0
 0 0 0
 -831.9548229 -477463.2339 -198.5423988
 -319.3307859 -477463.8506 -201.7870068
 319.3309234 -477463.8506 -201.7883452
 831.9548526 -477463.2339 -198.545684
 0 0 -0
 0 0 -0
 0 0 0
 -545.6561051 -477463.6687 -136.3794242
 -360.3924952 -477463.8377 -158.4066066
 -152.8087498 -477463.9464 -166.6940493
 152.8090353 -477463.9464 -166.69506
 360.3925188 -477463.8377 -158.4092635
 545.6560693 -477463.6687 -136.3826898
 0 0 -0
 -836.4348366 -477463.2631 -63.40685258
 -362.42804 -477463.8544 -87.56701906
 -186.3733162 -477463.9526 -102.4174169
 -66.36704989 -477463.9829 -109.0086534
 66.36718742 -477463.9829 -109.0093749
 186.3734066 -477463.9526 -102.4198533
 362.427996 -477463.8544 -87.57004681
 836.4349801 -477463.2631 -63.41025701
 -320.4899738 -477463.8918 -24.84251564
 -153.7805116 -477463.9742 -30.79107026
 -66.66027368 -477463.994 -35.54241043
 -20.43869138 -477463.9981 -37.87388755
 20.43869754 -477463.9981 -37.87446594
 66.66017841 -477463.994 -35.54441447
 153.7803569 -477463.9742 -30.79372726
 320.4898507 -477463.8918 -24.84550967
 320.4897326 -477463.8918 24.84541429
 153.780243 -477463.9742 30.79362455
 66.66007681 -477463.994 35.54434461
 20.43861543 -477463.9981 37.87443368
 -20.43873238 -477463.9981 37.87392125
 -66.66027838 -477463.994 35.5424767
 -153.7804551 -477463.9742 30.79115439
 -320.4898723 -477463.8918 24.84257578
 836.4348526 -477463.2631 63.41003885
 362.4278506 -477463.8544 87.56977696
 186.3732364 -477463.9526 102.4196029
 66.36702752 -477463.9829 109.0092747
 -66.36721789 -477463.9829 109.0087752
 -186.3733711 -477463.9526 102.4176851
 -362.4280277 -477463.8544 87.56725897
 -836.434748 -477463.2631 63.40704266
 0 0 0
 545.6559198 -477463.6687 136.3822214
 360.3923437 -477463.8377 158.408708
 152.8087824 -477463.9464 166.6948482
 -152.8089363 -477463.9464 166.6942986
 -360.392626 -477463.8377 158.4071541
 -545.6561205 -477463.6687 136.3799077
 0 0 -0
 0 0 0
 0 0 0
 831.9546075 -477463.2339 198.5448044
 319.3306789 -477463.8506 201.7880008
 -319.3310373 -477463.8506 201.7873904
 -831.955031 -477463.2339 198.5433258
 0 0 -0
 0 0 -0
 0 0 0
 0 0 0
 -831.9548486 -477463.2339 198.5456876
 -319.3309194 -477463.8506 201.788348
 319.33079 -477463.8506 201.7870106
 831.9548269 -477463.2339 198.5424018
 0 0 -0
 0 0 -0
 0 0 0
 -545.6560652 -477463.6687 136.3826935
 -360.3925148 -477463.8377 158.4092657
 -152.8090312 -477463.9464 166.6950647
 152.8087538 -477463.9464 166.6940512
 360.3924993 -477463.8377 158.406611
 545.6561091 -477463.6687 136.3794272
 0 0 -0
 -836.434976 -477463.2631 63.41026061
 -362.427992 -477463.8544 87.57004907
 -186.3734024 -477463.9526 102.4198584
 -66.36718347 -477463.9829 109.009376
 66.36705404 -477463.9829 109.008659
 186.3733202 -477463.9526 102.4174184
 362.4280441 -477463.8544 87.56702344
 836.4348407 -477463.2631 63.40685564
 -320.4898467 -477463.8918 24.84551253
 -153.7803528 -477463.9742 30.793732
 -66.66017445 -477463.994 35.54441556
 -20.43869337 -477463.9981 37.87447197
 20.43869531 -477463.9981 37.87388816
 66.66027784 -477463.994 35.54241599
 153.7805156 -477463.9742 30.79107216
 320.4899779 -477463.8918 24.84251942
 320.4898764 -477463.8918 -24.84257199
 153.7804591 -477463.9742 -30.79115249
 66.66028254 -477463.994 -35.54247114
 20.43873631 -477463.9981 -37.87392064
 -20.43861126 -477463.9981 -37.87442765
 -66.66007285 -477463.994 -35.54434353
 -153.7802389 -477463.9742 -30.7936198
 -320.4897286 -477463.8918 -24.84541142
 836.4347521 -477463.2631 -63.40703961
 362.4280318 -477463.8544 -87.56725459
 186.3733751 -477463.9526 -102.4176836
 66.36722204 -477463.9829 -109.0087697
 -66.36702357 -477463.9829 -109.0092736
 -186.3732323 -477463.9526 -102.4195978
 -362.4278466 -477463.8544 -87.56977469
 -836.4348486 -477463.2631 -63.41003526
 0 0 0
 545.6561245 -477463.6687 -136.3799048
 360.3926301 -477463.8377 -158.4071497
 152.8089403 -477463.9464 -166.6942967
 -152.8087783 -477463.9464 -166.6948435
 -360.3923397 -477463.8377 -158.4087058
 -545.6559157 -477463.6687 -136.3822177
 0 0 -0
 0 0 0
 0 0 0
 831.955035 -477463.2339 -198.5433228
 319.3310413 -477463.8506 -201.7873866
 -319.3306749 -477463.8506 -201.7879979
 -831.9546035 -477463.2339 -198.5448008
 0 0 -0
 0 0 -0
 0 0 0
 0 0 0
 -827.4294823 -477462.8923 610.8209234
 -317.5406472 -477463.4908 620.8202942
 317.5401983 -477463.4908 620.8190756
 827.4291946 -477462.8923 610.8177145
 0 0 -0
 0 0 -0
 0 0 0
 -539.3976921 -477463.5109 419.698662
 -355.8960572 -477463.6186 487.4322348
 -151.1558808 -477463.7006 512.925303
 151.1553321 -477463.7006 512.9243803
 355.8957765 -477463.6186 487.4293285
 539.397689 -477463.5109 419.6949563
 0 0 -0
 -831.8794596 -477463.2354 195.2108091
 -357.9204444 -477463.7898 269.5294869
 -183.1549165 -477463.8608 315.2006587
 -65.20179431 -477463.8777 335.4704688
 65.20159952 -477463.8777 335.4696011
 183.154955 -477463.8608 315.1982036
 357.920694 -477463.7898 269.5260112
 831.8797745 -477463.2354 195.2072475
 -318.6864228 -477463.8875 76.48747265
 -152.1204669 -477463.9664 94.78645675
 -65.49304924 -477463.983 109.3975907
 -20.01892896 -477463.9854 116.5648318
 20.01906635 -477463.9854 116.5641673
 65.49337675 -477463.983 109.3953013
 152.1209012 -477463.9664 94.78339423
 318.686927 -477463.8875 76.48431736
 318.6868296 -477463.8875 -76.48436763
 152.1208429 -477463.9664 -94.78347185
 65.49340291 -477463.983 -109.3953972
 20.01919507 -477463.9854 -116.5642145
 -20.01876571 -477463.9854 -116.5647845
 -65.49289622 -477463.983 -109.3974579
 -152.1203321 -477463.9664 -94.78631474
 -318.6862762 -477463.8875 -76.48730446
 831.8796986 -477463.2354 -195.2074699
 357.9207022 -477463.7898 -269.5263541
 183.1551719 -477463.8608 -315.1985658
 65.20195776 -477463.8777 -335.4697523
 -65.20135933 -477463.8777 -335.4703359
 -183.1546151 -477463.8608 -315.2002863
 -357.9202475 -477463.7898 -269.5290842
 -831.8792976 -477463.2354 -195.2104888
 0 0 0
 539.3977625 -477463.5109 -419.6955889
 355.8961088 -477463.6186 -487.4300353
 151.1558988 -477463.7006 -512.9246877
 -151.1553352 -477463.7006 -512.9250486
 -355.8956184 -477463.6186 -487.4315758
 -539.3974818 -477463.5109 -419.6980095
 0 0 -0
 0 0 0
 0 0 0
 827.4296857 -477462.8923 -610.8187713
 317.5408428 -477463.4908 -620.8195386
 -317.5399661 -477463.4908 -620.8199257
 -827.4289533 -477462.8923 -610.8199408
 0 0 -0
 0 0 -0
 0 0 0
 0 0 0
 -817.7241636 -477462.1028 1069.110675
 -313.7019684 -477462.6603 1086.684555
 313.700912 -477462.6603 1086.683361
 817.7234536 -477462.1028 1069.107612
 0 0 -0
 0 0 -0
 0 0 0
 -526.001588 -477463.1445 735.0276878
 -346.2716969 -477463.1117 853.4540874
 -147.6181445 -477463.1326 898.0627642
 147.6173524 -477463.1326 898.0615549
 346.2712979 -477463.1117 853.4511838
 526.0016868 -477463.1445 735.0237317
 0 0 -0
 -822.107554 -477463.1696 342.1689352
 -348.27142 -477463.6395 472.1966704
 -176.275013 -477463.6483 552.060303
 -62.71294664 -477463.6344 587.503583
 62.71265485 -477463.6344 587.5025777
 176.2750931 -477463.6483 552.0578115
 348.2718828 -477463.6395 472.1933551
 822.1083212 -477463.1696 342.1655371
 -314.8195557 -477463.8774 134.0722236
 -148.568696 -477463.948 166.0868393
 -63.00076999 -477463.9574 191.6344696
 -19.12336874 -477463.956 204.1631847
 19.12353039 -477463.956 204.1624166
 63.00105217 -477463.9574 191.6324825
 148.5692865 -477463.948 166.0839626
 314.8204027 -477463.8774 134.069256
 314.8202534 -477463.8774 -134.0693018
 148.5692048 -477463.948 -166.0840467
 63.00108206 -477463.9574 -191.6326092
 19.12367137 -477463.956 -204.1624805
 -19.12319139 -477463.956 -204.1631261
 -63.00059622 -477463.9574 -191.6343299
 -148.5685561 -477463.948 -166.0866614
 -314.8194394 -477463.8774 -134.0720612
 822.1081706 -477463.1696 -342.1657583
 348.2718491 -477463.6395 -472.1937656
 176.2753139 -477463.6483 -552.058247
 62.71305938 -477463.6344 -587.5027642
 -62.71246298 -477463.6344 -587.5034278
 -176.2746922 -477463.6483 -552.0598698
 -348.2712617 -477463.6395 -472.1962147
 -822.1074457 -477463.1696 -342.1685948
 0 0 0
 526.0017441 -477463.1445 -735.0244929
 346.2716539 -477463.1117 -853.451979
 147.6180368 -477463.1326 -898.06193
 -147.6174719 -477463.1326 -898.0624851
 -346.2712148 -477463.1117 -853.4533295
 -526.0013845 -477463.1445 -735.0269215
 0 0 -0
 0 0 0
 0 0 0
 817.7240781 -477462.1028 -1069.10876
 313.7017227 -477462.6603 -1086.683857
 -313.70112 -477462.6603 -1086.68418
 -817.7234835 -477462.1028 -1069.109646
 0 0 -0
 0 0 -0
 0 0 0
 0 0 0
 -801.5004421 -477460.6288 1605.246408
 -307.2890577 -477461.1127 1631.779355
 307.2871188 -477461.1127 1631.778288
 801.4990517 -477460.6288 1605.243846
 0 0 -0
 0 0 -0
 0 0 0
 -503.7054491 -477462.4565 1104.645761
 -330.2574573 -477462.1644 1282.09853
 -141.7366157 -477462.0733 1348.986488
 141.7352272 -477462.0733 1348.985543
 330.2567582 -477462.1644 1282.096004
 503.7055409 -477462.4565 1104.642525
 0 0 -0
 -805.7675544 -477463.0424 514.9923551
 -332.2143609 -477463.3565 710.0252775
 -164.8643706 -477463.2507 829.6598979
 -58.59315312 -477463.1804 882.717928
 58.59238933 -477463.1804 882.7172212
 164.8641126 -477463.2507 829.6579078
 332.2145972 -477463.3565 710.0226144
 805.7679924 -477463.0424 514.9894655
 -308.3589216 -477463.8578 201.794972
 -142.663154 -477463.9133 249.7985329
 -58.87493629 -477463.9095 288.0485025
 -17.64497972 -477463.9011 306.7863407
 17.64481541 -477463.9011 306.785897
 58.87518612 -477463.9095 288.0469728
 142.6637014 -477463.9133 249.7961645
 308.3595263 -477463.8578 201.792087
 308.3593567 -477463.8578 -201.7920717
 142.6635877 -477463.9133 -249.7962462
 58.87517889 -477463.9095 -288.0470706
 17.64493645 -477463.9011 -306.7859463
 -17.64480952 -477463.9011 -306.7863287
 -58.8748024 -477463.9095 -288.0483855
 -142.6630593 -477463.9133 -249.7984158
 -308.3588261 -477463.8578 -201.79489
 805.7677465 -477463.0424 -514.9895655
 332.2144926 -477463.3565 -710.0229366
 164.8642663 -477463.2507 -829.6582985
 58.59280395 -477463.1804 -882.7174039
 -58.5927223 -477463.1804 -882.7177959
 -164.8640757 -477463.2507 -829.6595404
 -332.2142691 -477463.3565 -710.0249175
 -805.7675493 -477463.0424 -514.99218
 0 0 0
 503.7054928 -477462.4565 -1104.643216
 330.257168 -477462.1644 -1282.09675