# OOMMF OVF 2.0
#
# Segment count: 1
#
# Begin: Segment
# Begin: Header
#
# Title: Oxs_MinDriver::Magnetization
# Desc: Oxs vector field output
# Desc:  MIF source file: F:/Bogdan/UNIC/2022/Master_degree/Samples/Cylinder0_5000 1.mif
# Desc:  Iteration: 1025, State id: 2226
# Desc:  Stage: 6, Stage iteration: 44
# Desc:  Stage simulation time: 0 s
# Desc:  Total simulation time: -2 s
# meshunit: m
# meshtype: rectangular
# xbase: -8.9999999999999995e-09
# ybase: -8.9999999999999995e-09
# zbase: -2.0999999999999999e-08
# xnodes: 10
# ynodes: 10
# znodes: 22
# xstepsize: 2.0000000000000001e-09
# ystepsize: 2.0000000000000001e-09
# zstepsize: 2.0000000000000001e-09
# xmin: -1e-08
# ymin: -1e-08
# zmin: -2.1999999999999998e-08
# xmax: 1e-08
# ymax: 1e-08
# zmax: 2.2000000000000005e-08
# valuedim: 3
# valuelabels: Magnetization_x Magnetization_y Magnetization_z
# valueunits: A/m A/m A/m
#
# End: Header
#
# Begin: Data Text
 0 0 0
 0 0 0
 0 0 0
 7716.112775 28870.18943 476527.9059
 2898.453967 29067.37079 476569.5733
 -2898.453936 29067.37079 476569.5733
 -7716.112745 28870.18943 476527.9059
 0 0 -0
 0 0 -0
 0 0 -0
 0 0 0
 21456.0856 21456.08561 476498.8395
 17022.6649 22349.65091 476636.7519
 10085.551 24209.77165 476743.1593
 3407.378957 24697.49602 476812.6411
 -3407.378926 24697.49602 476812.6411
 -10085.55096 24209.77166 476743.1593
 -17022.66487 22349.65091 476636.7519
 -21456.08557 21456.08561 476498.8395
 0 0 -0
 0 0 0
 22349.6509 17022.66491 476636.7519
 17535.319 17535.31901 476819.5639
 10852.90237 18241.10886 476991.9787
 3667.057267 18545.46204 477089.6036
 -3667.057235 18545.46205 477089.6036
 -10852.90234 18241.10886 476991.9787
 -17535.31897 17535.31901 476819.5639
 -22349.65087 17022.6649 476636.7519
 0 0 -0
 28870.18942 7716.112785 476527.9059
 24209.77164 10085.55101 476743.1593
 18241.10885 10852.90238 476991.9787
 11262.19127 11262.19128 477198.2789
 3802.446462 11439.93317 477311.7856
 -3802.446431 11439.93316 477311.7856
 -11262.19124 11262.19129 477198.2789
 -18241.10882 10852.90238 476991.9787
 -24209.77161 10085.55101 476743.1593
 -28870.18939 7716.112784 476527.9059
 29067.37078 2898.453977 476569.5733
 24697.49601 3407.378967 476812.6411
 18545.46203 3667.057277 477089.6036
 11439.93316 3802.446472 477311.7856
 3861.264828 3861.264839 477432.7728
 -3861.264796 3861.264851 477432.7728
 -11439.93313 3802.446462 477311.7856
 -18545.462 3667.057285 477089.6036
 -24697.49598 3407.378963 476812.6411
 -29067.37075 2898.453979 476569.5733
 29067.37078 -2898.453926 476569.5733
 24697.49601 -3407.378916 476812.6411
 18545.46204 -3667.057225 477089.6036
 11439.93315 -3802.44642 477311.7856
 3861.26484 -3861.264787 477432.7728
 -3861.26481 -3861.264798 477432.7728
 -11439.93311 -3802.44641 477311.7856
 -18545.46201 -3667.057233 477089.6036
 -24697.49598 -3407.378911 476812.6411
 -29067.37075 -2898.453928 476569.5733
 28870.18942 -7716.112735 476527.9059
 24209.77165 -10085.55095 476743.1593
 18241.10885 -10852.90233 476991.9787
 11262.19128 -11262.19123 477198.2789
 3802.446451 -11439.93311 477311.7856
 -3802.446419 -11439.93311 477311.7856
 -11262.19125 -11262.19124 477198.2789
 -18241.10882 -10852.90232 476991.9787
 -24209.77162 -10085.55096 476743.1593
 -28870.18939 -7716.112734 476527.9059
 0 0 0
 22349.6509 -17022.66486 476636.7519
 17535.319 -17535.31896 476819.5639
 10852.90237 -18241.10881 476991.9787
 3667.057275 -18545.46199 477089.6036
 -3667.057244 -18545.462 477089.6036
 -10852.90233 -18241.10881 476991.9787
 -17535.31897 -17535.31896 476819.5639
 -22349.65087 -17022.66485 476636.7519
 0 0 -0
 0 0 0
 21456.0856 -21456.08556 476498.8395
 17022.66489 -22349.65086 476636.7519
 10085.551 -24209.7716 476743.1593
 3407.378952 -24697.49597 476812.6411
 -3407.378921 -24697.49597 476812.6411
 -10085.55097 -24209.77161 476743.1593
 -17022.66486 -22349.65086 476636.7519
 -21456.08557 -21456.08556 476498.8395
 0 0 -0
 0 0 0
 0 0 0
 0 0 0
 7716.112774 -28870.18938 476527.9059
 2898.453968 -29067.37074 476569.5733
 -2898.453938 -29067.37074 476569.5733
 -7716.112744 -28870.18938 476527.9059
 0 0 -0
 0 0 -0
 0 0 -0
 0 0 0
 0 0 0
 0 0 0
 6407.634335 24787.71156 476777.0788
 2464.951835 24972.02483 476804.1456
 -2464.951806 24972.02483 476804.1456
 -6407.634306 24787.71156 476777.0788
 0 0 -0
 0 0 -0
 0 0 -0
 0 0 0
 18385.98359 18385.9836 476755.4745
 14798.81837 19231.91531 476846.9353
 8746.380812 21125.33991 476916.2318
 2974.871241 21697.08947 476961.4846
 -2974.871211 21697.08948 476961.4846
 -8746.380784 21125.3399 476916.2318
 -14798.81834 19231.91532 476846.9353
 -18385.98356 18385.98359 476755.4745
 0 0 -0
 0 0 0
 19231.91531 14798.81838 476846.9353
 15403.86173 15403.86175 476966.7844
 9622.351184 16191.90775 477092.343
 3266.554816 16554.85539 477165.734
 -3266.554787 16554.85537 477165.734
 -9622.351152 16191.90777 477092.343
 -15403.86171 15403.86173 476966.7844
 -19231.91528 14798.81838 476846.9353
 0 0 -0
 24787.71155 6407.634345 476777.0788
 21125.3399 8746.380824 476916.2318
 16191.90774 9622.35119 477092.343
 10096.14955 10096.14956 477250.4655
 3423.790286 10306.27251 477340.4757
 -3423.790255 10306.27254 477340.4757
 -10096.14952 10096.14954 477250.4655
 -16191.90771 9622.35121 477092.343
 -21125.33987 8746.380813 476916.2318
 -24787.71152 6407.634347 476777.0788
 24972.02482 2464.951846 476804.1456
 21697.08946 2974.871249 476961.4846
 16554.85538 3266.55483 477165.734
 10306.27251 3423.790292 477340.4757
 3492.996942 3492.996956 477438.4455
 -3492.996914 3492.996924 477438.4455
 -10306.27247 3423.790321 477340.4757
 -16554.85535 3266.554807 477165.734
 -21697.08943 2974.871262 476961.4846
 -24972.02479 2464.951842 476804.1456
 24972.02482 -2464.951797 476804.1456
 21697.08947 -2974.871199 476961.4846
 16554.85536 -3266.554779 477165.734
 10306.27253 -3423.790242 477340.4757
 3492.996916 -3492.996905 477438.4455
 -3492.996884 -3492.996873 477438.4455
 -10306.2725 -3423.79027 477340.4757
 -16554.85533 -3266.554757 477165.734
 -21697.08944 -2974.871212 476961.4846
 -24972.02479 -2464.951793 476804.1456
 24787.71155 -6407.634296 476777.0788
 21125.33989 -8746.380774 476916.2318
 16191.90776 -9622.351141 477092.343
 10096.14953 -10096.14951 477250.4655
 3423.79031 -10306.27246 477340.4757
 -3423.790281 -10306.27249 477340.4757
 -10096.1495 -10096.14949 477250.4655
 -16191.90773 -9622.351159 477092.343
 -21125.33986 -8746.380764 476916.2318
 -24787.71152 -6407.634298 476777.0788
 0 0 0
 19231.91531 -14798.81833 476846.9353
 15403.86173 -15403.8617 476966.7844
 9622.351198 -16191.9077 477092.343
 3266.554797 -16554.85534 477165.734
 -3266.554767 -16554.85532 477165.734
 -9622.351171 -16191.90772 477092.343
 -15403.86169 -15403.86168 476966.7844
 -19231.91528 -14798.81833 476846.9353
 0 0 -0
 0 0 0
 18385.98358 -18385.98355 476755.4745
 14798.81837 -19231.91527 476846.9353
 8746.380804 -21125.33986 476916.2318
 2974.871252 -21697.08942 476961.4846
 -2974.871223 -21697.08943 476961.4846
 -8746.380773 -21125.33985 476916.2318
 -14798.81834 -19231.91527 476846.9353
 -18385.98355 -18385.98354 476755.4746
 0 0 -0
 0 0 0
 0 0 0
 0 0 0
 6407.634337 -24787.71151 476777.0788
 2464.951832 -24972.02478 476804.1456
 -2464.951802 -24972.02478 476804.1456
 -6407.634308 -24787.71151 476777.0788
 0 0 -0
 0 0 -0
 0 0 -0
 0 0 0
 0 0 0
 0 0 0
 5059.900409 19962.1476 477019.6866
 1959.467682 20118.34823 477035.9356
 -1959.467654 20118.34824 477035.9356
 -5059.900383 19962.14759 477019.6866
 0 0 -0
 0 0 -0
 0 0 -0
 0 0 0
 14800.15008 14800.15009 477005.013
 11982.57548 15517.95917 477061.2981
 7072.003477 17153.20972 477103.3698
 2411.097706 17689.23209 477130.1174
 -2411.097679 17689.23207 477130.1174
 -7072.003448 17153.20973 477103.3698
 -11982.57545 15517.95917 477061.2981
 -14800.15005 14800.15009 477005.013
 0 0 -0
 0 0 0
 15517.95916 11982.57549 477061.2981
 12559.73825 12559.73825 477133.5004
 7901.783467 13311.67638 477212.9843
 2693.074339 13677.65556 477260.4534
 -2693.07431 13677.6556 477260.4534
 -7901.783443 13311.67635 477212.9843
 -12559.73822 12559.73827 477133.5004
 -15517.95913 11982.57548 477061.2981
 0 0 -0
 19962.14759 5059.900421 477019.6866
 17153.20972 7072.00348 477103.3698
 13311.67635 7901.783489 477212.9843
 8377.292402 8377.292395 477316.9945
 2854.161628 8596.719473 477378.0697
 -2854.161602 8596.719431 477378.0697
 -8377.292368 8377.292433 477316.9945
 -13311.67633 7901.783462 477212.9843
 -17153.20968 7072.003496 477103.3698
 -19962.14756 5059.900417 477019.6866
 20118.34822 1959.467689 477035.9356
 17689.23207 2411.097724 477130.1174
 13677.65557 2693.074337 477260.4534
 8596.719446 2854.161653 477378.0697
 2927.50155 2927.501544 477446.0501
 -2927.50152 2927.50159 477446.0501
 -8596.719425 2854.161613 477378.0697
 -13677.65553 2693.074368 477260.4534
 -17689.23205 2411.097704 477130.1174
 -20118.3482 1959.467695 477035.9356
 20118.34822 -1959.467642 477035.9356
 17689.23207 -2411.097676 477130.1174
 13677.65557 -2693.07429 477260.4534
 8596.719437 -2854.161605 477378.0697
 2927.501564 -2927.501497 477446.0501
 -2927.501539 -2927.501541 477446.0501
 -8596.719403 -2854.161566 477378.0697
 -13677.65555 -2693.07432 477260.4534
 -17689.23204 -2411.097658 477130.1174
 -20118.3482 -1959.467648 477035.9356
 19962.14759 -5059.900374 477019.6866
 17153.20972 -7072.003434 477103.3698
 13311.67635 -7901.78344 477212.9843
 8377.292409 -8377.29235 477316.9945
 2854.161615 -8596.719423 477378.0697
 -2854.161585 -8596.719386 477378.0697
 -8377.292387 -8377.292383 477316.9945
 -13311.67631 -7901.783416 477212.9843
 -17153.2097 -7072.003448 477103.3698
 -19962.14756 -5059.90037 477019.6866
 0 0 0
 15517.95916 -11982.57544 477061.2981
 12559.73825 -12559.73821 477133.5004
 7901.783461 -13311.67633 477212.9843
 2693.074349 -13677.65552 477260.4534
 -2693.074323 -13677.65555 477260.4534
 -7901.783429 -13311.6763 477212.9843
 -12559.73823 -12559.73822 477133.5004
 -15517.95913 -11982.57543 477061.2981
 0 0 -0
 0 0 0
 14800.15008 -14800.15004 477005.013
 11982.57547 -15517.95913 477061.2981
 7072.003481 -17153.20967 477103.3698
 2411.097699 -17689.23205 477130.1174
 -2411.097671 -17689.23203 477130.1174
 -7072.003456 -17153.20969 477103.3698
 -11982.57544 -15517.95912 477061.2981
 -14800.15006 -14800.15005 477005.013
 0 0 -0
 0 0 0
 0 0 0
 0 0 0
 5059.900408 -19962.14755 477019.6866
 1959.467684 -20118.34819 477035.9356
 -1959.467657 -20118.34819 477035.9356
 -5059.900381 -19962.14755 477019.6866
 0 0 -0
 0 0 -0
 0 0 -0
 0 0 0
 0 0 0
 0 0 0
 3884.320486 15495.49989 477196.6815
 1506.452149 15617.21031 477206.1448
 -1506.452125 15617.21031 477206.1448
 -3884.320461 15495.4999 477196.6815
 0 0 -0
 0 0 -0
 0 0 -0
 0 0 0
 11489.57248 11489.5725 477187.4377
 9317.96295 12053.98679 477220.859
 5492.230315 13356.66487 477245.5408
 1873.322595 13799.04606 477260.8807
 -1873.322569 13799.04608 477260.8807
 -5492.230293 13356.66485 477245.5408
 -9317.962923 12053.9868 477220.859
 -11489.57246 11489.57249 477187.4377
 0 0 -0
 0 0 0
 12053.98679 9317.962951 477220.859
 9798.173268 9798.173297 477262.8866
 6187.028107 10431.49581 477309.9369
 2113.375188 10749.67128 477338.2967
 -2113.375165 10749.67125 477338.2967
 -6187.028078 10431.49584 477309.9369
 -9798.173248 9798.173276 477262.8866
 -12053.98677 9317.96296 477220.859
 0 0 -0
 15495.49989 3884.320492 477196.6815
 13356.66484 5492.23034 477245.5408
 10431.49583 6187.02809 477309.9369
 6602.24372 6602.243765 477372.6972
 2256.570004 6799.789445 477410.245
 -2256.569976 6799.78949 477410.245
 -6602.243701 6602.243726 477372.6972
 -10431.4958 6187.028119 477309.9369
 -13356.66482 5492.230323 477245.5408
 -15495.49986 3884.320496 477196.6815
 15617.2103 1506.452164 477206.1448
 13799.04607 1873.322587 477260.8807
 10749.67124 2113.375227 477338.2967
 6799.789475 2256.569976 477410.245
 2323.718312 2323.718362 477452.6908
 -2323.71829 2323.718314 477452.6908
 -6799.789442 2256.570019 477410.245
 -10749.67122 2113.375194 477338.2967
 -13799.04604 1873.322607 477260.8807
 -15617.21028 1506.452158 477206.1448
 15617.2103 -1506.45212 477206.1448
 13799.04605 -1873.322543 477260.8807
 10749.67127 -2113.375181 477338.2967
 6799.789442 -2256.569932 477410.245
 2323.718343 -2323.718316 477452.6908
 -2323.718315 -2323.718271 477452.6908
 -6799.789425 -2256.569973 477410.245
 -10749.67123 -2113.37515 477338.2967
 -13799.04603 -1873.322562 477260.8807
 -15617.21028 -1506.452114 477206.1448
 15495.49988 -3884.320448 477196.6815
 13356.66486 -5492.230295 477245.5408
 10431.49581 -6187.028048 477309.9369
 6602.243748 -6602.243718 477372.6972
 2256.569976 -6799.789404 477410.245
 -2256.569953 -6799.789442 477410.245
 -6602.243716 -6602.243684 477372.6972
 -10431.49579 -6187.028073 477309.9369
 -13356.66483 -5492.23028 477245.5408
 -15495.49986 -3884.320452 477196.6815
 0 0 0
 12053.98679 -9317.962908 477220.859
 9798.173283 -9798.173251 477262.8866
 6187.028087 -10431.49577 477309.9369
 2113.375209 -10749.67123 477338.2967
 -2113.375182 -10749.6712 477338.2967
 -6187.028066 -10431.4958 477309.9369
 -9798.173253 -9798.173234 477262.8866
 -12053.98676 -9317.962915 477220.859
 0 0 -0
 0 0 0
 11489.57249 -11489.57245 477187.4377
 9317.962943 -12053.98675 477220.859
 5492.230326 -13356.66482 477245.5408
 1873.322583 -13799.04602 477260.8807
 -1873.322559 -13799.04603 477260.8807
 -5492.230299 -13356.66481 477245.5408
 -9317.96292 -12053.98676 477220.859
 -11489.57246 -11489.57245 477187.4377
 0 0 -0
 0 0 0
 0 0 0
 0 0 0
 3884.320483 -15495.49985 477196.6815
 1506.452153 -15617.21027 477206.1448
 -1506.452128 -15617.21026 477206.1448
 -3884.320459 -15495.49985 477196.6815
 0 0 -0
 0 0 -0
 0 0 -0
 0 0 0
 0 0 0
 0 0 0
 2920.147134 11726.8257 477311.0365
 1132.783704 11816.48757 477316.4136
 -1132.783682 11816.48757 477316.4136
 -2920.147113 11726.8257 477311.0365
 0 0 -0
 0 0 -0
 0 0 -0
 0 0 0
 8697.346171 8697.346176 477305.5454
 7053.313345 9120.558224 477324.7715
 4151.655867 10113.88822 477338.815
 1415.701714 10455.16724 477347.417
 -1415.701692 10455.16722 477347.417
 -4151.655842 10113.88823 477338.815
 -7053.313324 9120.558216 477324.7715
 -8697.346148 8697.346178 477305.5454
 0 0 -0
 0 0 0
 9120.558201 7053.313367 477324.7715
 7423.519694 7423.519672 477348.5666
 4693.699988 7918.189251 477375.2641
 1604.756561 8170.674278 477391.3867
 -1604.756537 8170.674307 477391.3867
 -4693.69997 7918.189226 477375.2641
 -7423.519668 7423.51969 477348.5666
 -9120.558181 7053.31336 477324.7715
 0 0 -0
 11726.82568 2920.14715 477311.0365
 10113.88823 4151.655851 477338.815
 7918.189196 4693.700042 477375.2641
 5024.924382 5024.924332 477411.1138
 1720.295998 5185.339175 477432.743
 -1720.295978 5185.339138 477432.743
 -5024.924354 5024.924365 477411.1138
 -7918.189181 4693.700017 477375.2641
 -10113.88821 4151.655865 477338.815
 -11726.82566 2920.147146 477311.0365
 11816.48757 1132.783704 477316.4136
 10455.1672 1415.701753 477347.417
 8170.674321 1604.756521 477391.3867
 5185.339099 1720.296072 477432.743
 1775.489922 1775.48986 477457.3976
 -1775.489897 1775.4899 477457.3976
 -5185.339084 1720.296036 477432.743
 -8170.67429 1604.756548 477391.3867
 -10455.16718 1415.701737 477347.417
 -11816.48754 1132.78371 477316.4136
 11816.48755 -1132.783664 477316.4136
 10455.16724 -1415.701711 477347.417
 8170.674246 -1604.75648 477391.3867
 5185.339193 -1720.296029 477432.743
 1775.48982 -1775.48982 477457.3976
 -1775.489801 -1775.489857 477457.3976
 -5185.339164 -1720.295996 477432.743
 -8170.674232 -1604.756506 477391.3867
 -10455.16722 -1415.701696 477347.417
 -11816.48753 -1132.783668 477316.4136
 11726.82569 -2920.147109 477311.0365
 10113.8882 -4151.655811 477338.815
 7918.18926 -4693.699998 477375.2641
 5024.9243 -5024.924294 477411.1138
 1720.296087 -5185.33913 477432.743
 -1720.296063 -5185.3391 477432.743
 -5024.924284 -5024.924321 477411.1138
 -7918.18923 -4693.699978 477375.2641
 -10113.88818 -4151.655822 477338.815
 -11726.82567 -2920.147106 477311.0365
 0 0 0
 9120.558219 -7053.313325 477324.7715
 7423.519651 -7423.519633 477348.5666
 4693.700048 -7918.189207 477375.2641
 1604.756493 -8170.67424 477391.3867
 -1604.756472 -8170.674262 477391.3867
 -4693.700022 -7918.189188 477375.2641
 -7423.519633 -7423.519646 477348.5666
 -9120.558194 -7053.313319 477324.7715
 0 0 -0
 0 0 0
 8697.346164 -8697.346135 477305.5454
 7053.313362 -9120.558181 477324.7715
 4151.655832 -10113.88818 477338.815
 1415.701754 -10455.1672 477347.417
 -1415.701731 -10455.16718 477347.417
 -4151.655813 -10113.88819 477338.815
 -7053.313338 -9120.558176 477324.7715
 -8697.346143 -8697.346136 477305.5454
 0 0 -0
 0 0 0
 0 0 0
 0 0 0
 2920.147142 -11726.82566 477311.0365
 1132.783691 -11816.48753 477316.4136
 -1132.78367 -11816.48753 477316.4136
 -2920.14712 -11726.82566 477311.0365
 0 0 -0
 0 0 -0
 0 0 -0
 0 0 0
 0 0 0
 0 0 0
 2154.541017 8688.490071 477380.0785
 835.720044 8752.196931 477383.0453
 -835.7200252 8752.196927 477383.0453
 -2154.540998 8688.490073 477380.0785
 0 0 -0
 0 0 -0
 0 0 -0
 0 0 0
 6445.772058 6445.772073 477376.974
 5223.760651 6753.283814 477387.6588
 3070.586111 7489.00825 477395.3891
 1046.521797 7741.865799 477400.0834
 -1046.521777 7741.865811 477400.0834
 -3070.586093 7489.00824 477395.3891
 -5223.760631 6753.283819 477387.6588
 -6445.77204 6445.772071 477376.974
 0 0 -0
 0 0 0
 6753.283823 5223.760643 477387.6588
 5496.414239 5496.414291 477400.7228
 3475.280929 5865.068627 477415.3272
 1188.337223 6054.488009 477424.1325
 -1188.337205 6054.48799 477424.1325
 -3475.280907 5865.068644 477415.3272
 -5496.414223 5496.414279 477400.7228
 -6753.283802 5223.760648 477387.6588
 0 0 -0
 8688.49007 2154.541018 477380.0785
 7489.008205 3070.586155 477395.3891
 5865.06868 3475.280878 477415.3272
 3724.815881 3724.815972 477434.9409
 1275.934188 3846.690424 477446.7994
 -1275.934167 3846.690449 477446.7994
 -3724.815866 3724.815951 477434.9409
 -5865.068656 3475.280894 477415.3272
 -7489.00819 3070.586145 477395.3891
 -8688.49005 2154.54102 477380.0785
 8752.196907 835.7200667 477383.0453
 7741.865834 1046.521764 477400.0834
 6054.487927 1188.337302 477424.1325
 3846.690507 1275.934107 477446.7994
 1318.171842 1318.171953 477460.3608
 -1318.171824 1318.171928 477460.3608
 -3846.690483 1275.934129 477446.7994
 -6054.487914 1188.337285 477424.1325
 -7741.86581 1046.521775 477400.0834
 -8752.19689 835.7200633 477383.0453
 8752.196931 -835.7200287 477383.0453
 7741.865757 -1046.521727 477400.0834
 6054.488051 -1188.337263 477424.1325
 3846.690348 -1275.93407 477446.7994
 1318.172019 -1318.171913 477460.3608
 -1318.171998 -1318.171891 477460.3608
 -3846.690333 -1275.93409 477446.7994
 -6054.488026 -1188.337248 477424.1325
 -7741.865743 -1046.521736 477400.0834
 -8752.196911 -835.7200257 477383.0453
 8688.490055 -2154.540981 477380.0785
 7489.008265 -3070.586115 477395.3891
 5865.068574 -3475.280842 477415.3272
 3724.816021 -3724.815931 477434.9409
 1275.934032 -3846.69039 477446.7994
 -1275.934014 -3846.690407 477446.7994
 -3724.815997 -3724.815916 477434.9409
 -5865.06856 -3475.280853 477415.3272
 -7489.008243 -3070.586109 477395.3891
 -8688.490037 -2154.540982 477380.0785
 0 0 0
 6753.283792 -5223.760606 477387.6588
 5496.41431 -5496.41425 477400.7228
 3475.280826 -5865.068593 477415.3272
 1188.337342 -6054.487967 477424.1325
 -1188.337322 -6054.487955 477424.1325
 -3475.28081 -5865.068603 477415.3272
 -5496.414288 -5496.414244 477400.7228
 -6753.283775 -5223.760609 477387.6588
 0 0 -0
 0 0 0
 6445.772068 -6445.772035 477376.974
 5223.760621 -6753.283777 477387.6588
 3070.586169 -7489.00821 477395.3891
 1046.521725 -7741.865764 477400.0834
 -1046.521707 -7741.86577 477400.0834
 -3070.586148 -7489.008205 477395.3891
 -5223.760604 -6753.28378 477387.6588
 -6445.772048 -6445.772034 477376.974
 0 0 -0
 0 0 0
 0 0 0
 0 0 0
 2154.541003 -8688.490033 477380.0785
 835.7200665 -8752.196892 477383.0453
 -835.7200475 -8752.19689 477383.0453
 -2154.540984 -8688.490034 477380.0785
 0 0 -0
 0 0 -0
 0 0 -0
 0 0 0
 0 0 0
 0 0 0
 1555.625053 6290.17757 477420.0299
 603.3028409 6334.224012 477421.6008
 -603.3028253 6334.224014 477421.6008
 -1555.625038 6290.177568 477420.0299
 0 0 -0
 0 0 -0
 0 0 -0
 0 0 0
 4667.826745 4667.826747 477418.3638
 3779.553277 4885.483404 477424.0446
 2218.945987 5416.254648 477428.1221
 755.8334706 5597.84084 477430.5857
 -755.833455 5597.840834 477430.5857
 -2218.945971 5416.254653 477428.1221
 -3779.553261 4885.483401 477424.0446
 -4667.826729 4667.826748 477418.3638
 0 0 -0
 0 0 0
 4885.483374 3779.553307 477424.0446
 3973.736488 3973.736449 477430.9271
 2511.043232 4238.980142 477438.5793
 858.3968867 4375.496182 477443.1793
 -858.3968709 4375.496192 477443.1793
 -2511.043217 4238.980133 477438.5793
 -3973.736472 3973.736455 477430.9271
 -4885.483359 3779.553304 477424.0446
 0 0 -0
 6290.17755 1555.625072 477420.0299
 5416.254679 2218.945956 477428.1221
 4238.98006 2511.043313 477438.5793
 2691.430241 2691.430155 477448.8284
 921.9149322 2779.771039 477455.018
 -921.9149166 2779.771027 477455.018
 -2691.430225 2691.430166 477448.8284
 -4238.980045 2511.043304 477438.5793
 -5416.254663 2218.945961 477428.1221
 -6290.177534 1555.625071 477420.0299
 6334.224019 603.3028348 477421.6008
 5597.84078 755.8335296 477430.5857
 4375.496256 858.3968144 477443.1793
 2779.77092 921.9150493 477455.018
 952.6447774 952.6446657 477462.0993
 -952.6447614 952.6446768 477462.0993
 -2779.770905 921.9150393 477455.018
 -4375.49624 858.3968221 477443.1793
 -5597.840765 755.8335248 477430.5857
 -6334.224003 603.3028363 477421.6008
 6334.223988 -603.3028003 477421.6008
 5597.840875 -755.8334941 477430.5857
 4375.496099 -858.3967805 477443.1793
 2779.771125 -921.9150129 477455.018
 952.644546 -952.644632 477462.0993
 -952.6445304 -952.6446402 477462.0993
 -2779.771109 -921.9150057 477455.018
 -4375.496084 -858.3967861 477443.1793
 -5597.840859 -755.8334906 477430.5857
 -6334.223973 -603.3028014 477421.6008
 6290.177568 -1555.625037 477420.0299
 5416.254603 -2218.945923 477428.1221
 4238.980194 -2511.043275 477438.5793
 2691.430062 -2691.430124 477448.8284
 921.9151369 -2779.771 477455.018
 -921.9151209 -2779.770995 477455.018
 -2691.430046 -2691.430128 477448.8284
 -4238.980178 -2511.043272 477438.5793
 -5416.254588 -2218.945925 477428.1221
 -6290.177552 -1555.625037 477420.0299
 0 0 0
 4885.483412 -3779.553271 477424.0446
 3973.736397 -3973.736416 477430.9271
 2511.043365 -4238.980103 477438.5793
 858.3967307 -4375.496151 477443.1793
 -858.3967151 -4375.496153 477443.1793
 -2511.043349 -4238.980101 477438.5793
 -3973.736381 -3973.736417 477430.9271
 -4885.483396 -3779.55327 477424.0446
 0 0 -0
 0 0 0
 4667.826731 -4667.826712 477418.3638
 3779.553314 -4885.483368 477424.0446
 2218.945911 -5416.254616 477428.1221
 755.8335648 -5597.840802 477430.5857
 -755.8335491 -5597.840802 477430.5857
 -2218.945896 -5416.254616 477428.1221
 -3779.553298 -4885.483368 477424.0446
 -4667.826715 -4667.826712 477418.3638
 0 0 -0
 0 0 0
 0 0 0
 0 0 0
 1555.625071 -6290.177534 477420.0299
 603.302811 -6334.223978 477421.6008
 -603.3027954 -6334.223978 477421.6008
 -1555.625055 -6290.177534 477420.0299
 0 0 -0
 0 0 -0
 0 0 -0
 0 0 0
 0 0 0
 0 0 0
 1086.791843 4402.03344 477442.4701
 421.3998645 4431.553118 477443.248
 -421.3998521 4431.553116 477443.248
 -1086.791831 4402.033441 477442.4701
 0 0 -0
 0 0 -0
 0 0 -0
 0 0 0
 3267.481663 3267.481679 477441.6388
 2643.438631 3416.568185 477444.4581
 1550.362703 3786.387895 477446.4692
 527.8193678 3912.1457 477447.6807
 -527.8193563 3912.145704 477447.6807
 -1550.362689 3786.387892 477446.4692
 -2643.43862 3416.568186 477444.4581
 -3267.48165 3267.481679 477441.6388
 0 0 -0
 0 0 0
 3416.568195 2643.438621 477444.4581
 2776.773924 2776.773981 477447.8509
 1753.317949 2960.442637 477451.6027
 599.1239119 3054.908102 477453.8511
 -599.1238983 3054.908096 477453.8511
 -1753.31794 2960.442642 477451.6027
 -2776.773908 2776.773977 477447.8509
 -3416.568184 2643.438623 477444.4581
 0 0 -0
 4402.03344 1086.791843 477442.4701
 3786.387846 1550.362752 477446.4692
 2960.442696 1753.31789 477451.6027
 1878.402702 1878.402806 477456.6101
 643.2224445 1939.643499 477459.6269
 -643.222434 1939.643506 477459.6269
 -1878.402685 1878.4028 477456.6101
 -2960.44269 1753.317894 477451.6027
 -3786.38783 1550.362749 477446.4692
 -4402.033429 1086.791844 477442.4701
 4431.553092 421.3998897 477443.248
 3912.14574 527.8193285 477447.6807
 3054.90801 599.1240036 477453.8511
 1939.643598 643.2223462 477459.6269
 664.5582337 664.5583667 477463.075
 -664.5582191 664.5583613 477463.075
 -1939.643591 643.2223511 477459.6269
 -3054.907991 599.1239998 477453.8511
 -3912.145732 527.8193308 477447.6807
 -4431.553078 421.399889 477443.248
 4431.553122 -421.3998578 477443.248
 3912.145645 -527.8192972 477447.6807
 3054.908169 -599.1239706 477453.8511
 1939.643387 -643.2223154 477459.6269
 664.5584756 -664.5583332 477463.075
 -664.5584654 -664.5583305 477463.075
 -1939.643369 -643.2223177 477459.6269
 -3054.908163 -599.1239688 477453.8511
 -3912.145627 -527.8192983 477447.6807
 -4431.553112 -421.3998574 477443.248
 4402.033422 -1086.791812 477442.4701
 3786.387921 -1550.362719 477446.4692
 2960.442561 -1753.31786 477451.6027
 1878.402887 -1878.402771 477456.6101
 643.2222303 -1939.643471 477459.6269
 -643.2222161 -1939.643471 477459.6269
 -1878.402879 -1878.402771 477456.6101
 -2960.442543 -1753.31786 477451.6027
 -3786.387913 -1550.362718 477446.4692
 -4402.033408 -1086.791812 477442.4701
 0 0 0
 3416.568156 -2643.43859 477444.4581
 2776.774016 -2776.773947 477447.8509
 1753.317812 -2960.442608 477451.6027
 599.1240753 -3054.908066 477453.8511
 -599.1240643 -3054.908068 477453.8511
 -1753.317797 -2960.442607 477451.6027
 -2776.774007 -2776.773948 477447.8509
 -3416.568142 -2643.43859 477444.4581
 0 0 -0
 0 0 0
 3267.481676 -3267.481647 477441.6388
 2643.438592 -3416.568154 477444.4581
 1550.36278 -3786.387861 477446.4692
 527.8192689 -3912.145671 477447.6807
 -527.8192559 -3912.145669 477447.6807
 -1550.36277 -3786.387862 477446.4692
 -2643.438579 -3416.568153 477444.4581
 -3267.481664 -3267.481647 477441.6388
 0 0 -0
 0 0 0
 0 0 0
 0 0 0
 1086.791824 -4402.033409 477442.4701
 421.3998957 -4431.553085 477443.248
 -421.3998837 -4431.553085 477443.248
 -1086.791811 -4402.033408 477442.4701
 0 0 -0
 0 0 -0
 0 0 -0
 0 0 0
 0 0 0
 0 0 0
 713.1019771 2891.489595 477454.7121
 276.4565185 2910.195212 477455.0509
 -276.4565102 2910.195214 477455.0509
 -713.1019676 2891.489593 477454.7121
 0 0 -0
 0 0 -0
 0 0 -0
 0 0 0
 2146.690088 2146.690093 477454.3483
 1735.475529 2242.887805 477455.5779
 1017.059861 2484.825925 477456.4509
 346.1099648 2566.631015 477456.976
 -346.1099543 2566.631008 477456.976
 -1017.059856 2484.82593 477456.4509
 -1735.475517 2242.887802 477455.5779
 -2146.690081 2146.690094 477454.3483
 0 0 -0
 0 0 0
 2242.88778 1735.475554 477455.5779
 1821.569594 1821.569568 477457.0505
 1149.353908 1940.934513 477458.6716
 392.5876076 2002.23455 477459.6404
 -392.5876019 2002.234561 477459.6404
 -1149.353892 1940.934504 477458.6716
 -1821.569594 1821.569574 477457.0505
 -2242.887767 1735.475552 477455.5779
 0 0 -0
 2891.489577 713.1019946 477454.7121
 2484.825945 1017.05984 477456.4509
 1940.934448 1149.353974 477458.6716
 1230.635936 1230.635871 477460.8281
 421.2507244 1270.373501 477462.1241
 -421.2507111 1270.373488 477462.1241
 -1230.635939 1230.635883 477460.8281
 -1940.934426 1149.353965 477458.6716
 -2484.825946 1017.059845 477456.4509
 -2891.489566 713.1019934 477454.7121
 2910.195214 276.4565161 477455.0509
 2566.630966 346.1100149 477456.976
 2002.234605 392.5875507 477459.6404
 1270.373403 421.2508243 477462.1241
 435.1010818 435.1009883 477463.6035
 -435.1010781 435.1010016 477463.6035
 -1270.373381 421.2508125 477462.1241
 -2002.234612 392.5875597 477459.6404
 -2566.630945 346.1100094 477456.976
 -2910.195209 276.4565178 477455.0509
 2910.195192 -276.4564872 477455.0509
 2566.631037 -346.1099852 477456.976
 2002.234484 -392.5875223 477459.6404
 1270.373568 -421.2507939 477462.1241
 435.1008851 -435.1009602 477463.6035
 -435.1008711 -435.1009711 477463.6035
 -1270.373573 -421.2507843 477462.1241
 -2002.23446 -392.5875296 477459.6404
 -2566.63104 -346.1099808 477456.976
 -2910.195179 -276.4564886 477455.0509
 2891.48959 -713.1019654 477454.7121
 2484.825888 -1017.059812 477456.4509
 1940.934551 -1149.353943 477458.6716
 1230.635791 -1230.635844 477460.8281
 421.2508986 -1270.373469 477462.1241
 -421.2508941 -1270.373462 477462.1241
 -1230.635771 -1230.635851 477460.8281
 -1940.934555 -1149.353938 477458.6716
 -2484.82587 -1017.059814 477456.4509
 -2891.489584 -713.1019646 477454.7121
 0 0 0
 2242.887808 -1735.475524 477455.5779
 1821.569523 -1821.569541 477457.0505
 1149.354017 -1940.934481 477458.6716
 392.5874743 -2002.234524 477459.6404
 -392.5874624 -2002.234528 477459.6404
 -1149.354015 -1940.934477 477458.6716
 -1821.569506 -1821.569543 477457.0505
 -2242.887804 -1735.475523 477455.5779
 0 0 -0
 0 0 0
 2146.690077 -2146.690064 477454.3483
 1735.475559 -2242.887775 477455.5779
 1017.059799 -2484.825898 477456.4509
 346.1100455 -2566.630983 477456.976
 -346.1100384 -2566.630981 477456.976
 -1017.059786 -2484.825899 477456.4509
 -1735.475553 -2242.887774 477455.5779
 -2146.690067 -2146.690064 477454.3483
 0 0 -0
 0 0 0
 0 0 0
 0 0 0
 713.101992 -2891.489565 477454.7121
 276.4564928 -2910.195183 477455.0509
 -276.4564836 -2910.195184 477455.0509
 -713.101984 -2891.489564 477454.7121
 0 0 -0
 0 0 -0
 0 0 -0
 0 0 0
 0 0 0
 0 0 0
 403.4541453 1636.918142 477461.0236
 156.3921075 1647.241035 477461.1329
 -156.3921015 1647.24103 477461.1329
 -403.4541414 1636.918145 477461.0236
 0 0 -0
 0 0 -0
 0 0 -0
 0 0 0
 1215.449238 1215.449251 477460.9059
 982.1309528 1269.225102 477461.3029
 575.2715792 1405.77996 477461.5839
 195.7101683 1451.755968 477461.7528
 -195.7101658 1451.755983 477461.7528
 -575.2715676 1405.779948 477461.5839
 -982.1309525 1269.225109 477461.3029
 -1215.449231 1215.449249 477460.9059
 0 0 -0
 0 0 0
 1269.225099 982.1309558 477461.3029
 1030.258252 1030.258281 477461.7769