# OOMMF OVF 2.0
#
# Segment count: 1
#
# Begin: Segment
# Begin: Header
#
# Title: Oxs_MinDriver::Magnetization
# Desc: Oxs vector field output
# Desc:  MIF source file: F:/Bogdan/UNIC/2022/Master_degree/Samples/Cylinder11_7.mif
# Desc:  Iteration: 40109, State id: 99860
# Desc:  Stage: 2, Stage iteration: 1533
# Desc:  Stage simulation time: 0 s
# Desc:  Total simulation time: -2 s
# meshunit: m
# meshtype: rectangular
# xbase: -1.55e-08
# ybase: -1.55e-08
# zbase: -5.4999999999999996e-09
# xnodes: 32
# ynodes: 32
# znodes: 12
# xstepsize: 1.0000000000000001e-09
# ystepsize: 1.0000000000000001e-09
# zstepsize: 1.0000000000000001e-09
# xmin: -1.6000000000000001e-08
# ymin: -1.6000000000000001e-08
# zmin: -6e-09
# xmax: 1.6000000000000001e-08
# ymax: 1.6000000000000001e-08
# zmax: 6.0000000000000016e-09
# valuedim: 3
# valuelabels: Magnetization_x Magnetization_y Magnetization_z
# valueunits: A/m A/m A/m
#
# End: Header
#
# Begin: Data Text
 0 0 0
 0 0 0
 0 0 0
 0 0 0
 0 0 0
 0 0 0
 0 0 0
 0 0 0
 0 0 0
 0 0 0
 0 0 0
 0 0 0
 4790.906975 23877.2744 476842.5257
 3677.243656 23900.647 476851.2433
 2264.368407 23916.13694 476859.2689
 761.6238409 23922.74595 476863.7053
 -761.4262927 23922.74584 476863.7056
 -2264.171054 23916.13661 476859.2698
 -3677.046565 23900.64648 476851.2449
 -4790.710474 23877.27367 476842.5277
 0 0 -0
 0 0 -0
 0 0 -0
 0 0 -0
 0 0 -0
 0 0 -0
 0 0 -0
 0 0 -0
 0 0 -0
 0 0 -0
 0 0 -0
 0 0 -0
 0 0 0
 0 0 0
 0 0 0
 0 0 0
 0 0 0
 0 0 0
 0 0 0
 0 0 0
 0 0 0
 9614.784238 22302.99669 476845.8908
 8525.81309 22351.08387 476864.3527
 7085.819279 22435.72584 476883.9488
 5358.453681 22752.0992 476891.4974
 3836.893925 22799.96939 476903.8802
 2311.319106 22801.6733 476913.6324
 772.0027413 22798.31883 476918.7687
 -771.8048765 22798.31883 476918.769
 -2311.121307 22801.673 476913.6334
 -3836.696431 22799.96899 476903.8818
 -5358.256871 22752.0987 476891.4996
 -7085.623472 22435.72517 476883.9518
 -8525.618706 22351.08256 476864.3562
 -9614.591017 22302.99506 476845.8948
 0 0 -0
 0 0 -0
 0 0 -0
 0 0 -0
 0 0 -0
 0 0 -0
 0 0 -0
 0 0 -0
 0 0 -0
 0 0 0
 0 0 0
 0 0 0
 0 0 0
 0 0 0
 0 0 0
 0 0 0
 12828.30878 20711.06388 476842.0678
 11724.51032 20822.40233 476865.6359
 10127.46355 21161.43518 476887.3027
 8638.108413 21214.37015 476914.2532
 7091.657702 21221.17648 476939.4525
 5471.976382 21258.85619 476959.1071
 3892.496023 21242.07365 476975.36
 2330.644918 21214.82744 476986.7613
 776.1957413 21198.10053 476992.5674
 -775.9973129 21198.10034 476992.5677
 -2330.446448 21214.82729 476986.7623
 -3892.297868 21242.07338 476975.3617
 -5471.778926 21258.85571 476959.1093
 -7091.461517 21221.17568 476939.4555
 -8637.9136 21214.36906 476914.2567
 -10127.27038 21161.43377 476887.3068
 -11724.31861 20822.40063 476865.6407
 -12828.11834 20711.06208 476842.073
 0 0 -0
 0 0 -0
 0 0 -0
 0 0 -0
 0 0 -0
 0 0 -0
 0 0 -0
 0 0 0
 0 0 0
 0 0 0
 0 0 0
 0 0 0
 0 0 0
 14472.57105 19254.71099 476856.0287
 13233.69081 19577.81868 476878.8628
 11806.75703 19647.16748 476913.4729
 10225.65496 19691.47365 476948.1661
 8640.88758 19652.23745 476981.1274
 7049.743417 19586.43615 477010.004
 5452.321824 19526.24177 477033.4049
 3875.360675 19464.05431 477051.3636
 2317.173509 19414.06311 477063.5138
 771.0659159 19386.93578 477069.6212
 -770.8667758 19386.93556 477069.6215
 -2316.974408 19414.06277 477063.5147
 -3875.161951 19464.05376 477051.3652
 -5452.123828 19526.24121 477033.4072
 -7049.546706 19586.43522 477010.007
 -8640.692429 19652.23642 476981.131
 -10225.46159 19691.47206 476948.1703
 -11806.56526 19647.16574 476913.4777
 -13233.50032 19577.81688 476878.8681
 -14472.3815 19254.70878 476856.0345
 0 0 -0
 0 0 -0
 0 0 -0
 0 0 -0
 0 0 -0
 0 0 -0
 0 0 0
 0 0 0
 0 0 0
 0 0 0
 0 0 0
 16094.79494 17686.5741 476864.7753
 14849.54888 18032.35417 476892.2272
 13376.17241 18127.33286 476932.227
 11803.71293 18093.31113 476975.0263
 10181.59747 18015.53559 477015.3528
 8562.879019 17906.88349 477051.2466
 6960.389667 17791.36732 477081.6403
 5377.413533 17686.35406 477106.013
 3818.985384 17597.76701 477124.308
 2281.971951 17533.57212 477136.498
 759.0853966 17500.00368 477142.5835
 -758.8853527 17500.00362 477142.5838
 -2281.772084 17533.57162 477136.499
 -3818.786047 17597.7664 477124.3096
 -5377.21507 17686.35323 477106.0152
 -6960.192552 17791.36632 477081.6432
 -8562.683515 17906.88215 477051.2502
 -10181.40382 18015.53398 477015.357
 -11803.52088 18093.30933 476975.0312
 -13375.98181 18127.33079 476932.2324
 -14849.35955 18032.3518 476892.2332
 -16094.6065 17686.57116 476864.7818
 0 0 -0
 0 0 -0
 0 0 -0
 0 0 -0
 0 0 -0
 0 0 0
 0 0 0
 0 0 0
 0 0 0
 17686.75722 16094.6104 476864.7748
 16448.87398 16448.68964 476896.9977
 14963.64372 16547.31729 476942.4986
 13361.09072 16506.25414 476991.5053
 11714.73231 16392.2675 477038.709
 10063.90745 16249.54192 477081.2734
 8435.241137 16097.86947 477117.9902
 6838.488542 15952.80346 477148.4197
 5274.91919 15825.78885 477172.496
 3742.424317 15723.73046 477190.3497
 2234.825699 15652.28106 477202.1406
 743.1807197 15615.5342 477207.9987
 -742.9795392 15615.53401 477207.9991
 -2234.624771 15652.28061 477202.1415
 -3742.224064 15723.7298 477190.3513
 -5274.720056 15825.78798 477172.4982
 -6838.290738 15952.80224 477148.4226
 -8435.045173 16097.86784 477117.9937
 -10063.71331 16249.54009 477081.2776
 -11714.5399 16392.26544 477038.7138
 -13360.8998 16506.25196 476991.5107
 -14963.45434 16547.31469 476942.5046
 -16448.68608 16448.68657 476897.0043
 -17686.57071 16094.60704 476864.7818
 0 0 -0
 0 0 -0
 0 0 -0
 0 0 -0
 0 0 0
 0 0 0
 0 0 0
 19254.89236 14472.38547 476856.027
 18032.53695 14849.36335 476892.2261
 16547.50173 14963.45791 476942.498
 14927.54737 14927.36124 476997.0791
 13250.81211 14806.44847 477050.3709
 11566.66216 14643.21731 477099.2138
 9904.151179 14466.14838 477142.0225
 8279.560736 14292.2291 477178.2187
 6698.416207 14133.20517 477207.7692
 5159.303841 13997.46155 477230.8917
 3656.760476 13890.7278 477247.8885
 2182.322039 13817.19551 477259.0427
 725.5082408 13779.71422 477264.5644
 -725.3061683 13779.71403 477264.5647
 -2182.120342 13817.19505 477259.0437
 -3656.55939 13890.72704 477247.8901
 -5159.103872 13997.46044 477230.8938
 -6698.217746 14133.20373 477207.7721
 -8279.364127 14292.22715 477178.2221
 -9903.956526 14466.14609 477142.0266
 -11566.4693 14643.21493 477099.2185
 -13250.62102 14806.44585 477050.3763
 -14927.35801 14927.35848 476997.0852
 -16547.31425 14963.45484 476942.5046
 -18032.35139 14849.36011 476892.2332
 -19254.70842 14472.3821 476856.0345
 0 0 -0
 0 0 -0
 0 0 -0
 0 0 0
 0 0 0
 20711.2429 12828.12285 476842.065
 19577.99946 13233.50439 476878.8605
 18127.51533 13375.98579 476932.2253
 16506.43868 13360.90344 476991.5042
 14806.63467 13250.62459 477050.3703
 13087.28609 13087.09799 477105.1478
 11385.76081 12899.73216 477153.8878
 9723.731022 12708.97592 477195.7693
 8111.687964 12528.35389 477230.6698
 6551.693777 12367.09127 477258.8414
 5039.987858 12231.62169 477280.6902
 3569.03332 12126.41041 477296.641
 2128.767637 12054.57854 477307.0571
 707.5124748 12018.1589 477312.1982
 -707.3097625 12018.15884 477312.1985
 -2128.565339 12054.57805 477307.058
 -3568.831725 12126.40957 477296.6425
 -5039.787253 12231.62036 477280.6924
 -6551.494679 12367.08954 477258.8441
 -8111.49076 12528.35162 477230.6732
 -9723.535824 12708.97345 477195.7734
 -11385.56752 12899.72948 477153.8925
 -13087.09483 13087.09525 477105.1532
 -14806.44543 13250.62147 477050.3763
 -16506.25154 13360.90031 476991.5107
 -18127.33042 13375.98236 476932.2324
 -19577.81654 13233.50092 476878.8681
 -20711.06178 12828.11896 476842.073
 0 0 -0
 0 0 -0
 0 0 0
 0 0 0
 20822.58091 11724.32354 476865.6327
 19647.34758 11806.56986 476913.4701
 18093.4933 11803.52518 476975.0241
 16392.4517 11714.544 477038.7073
 14643.40356 11566.47327 477099.2127
 12899.92044 11385.57125 477153.8872
 11192.82061 11192.63063 477201.5477
 9538.541864 11002.88271 477241.8926
 7943.550487 10826.92612 477275.1292
 6407.149899 10672.0488 477301.715
 4923.65017 10543.26699 477322.1852
 3484.020729 10444.0206 477337.0458
 2077.04794 10376.6394 477346.711
 690.1594296 10342.59158 477351.4699
 -689.9564787 10342.59154 477351.4702
 -2076.845278 10376.63894 477346.7119
 -3483.81871 10444.01964 477337.0473
 -4923.449124 10543.26548 477322.1873
 -6406.950302 10672.04681 477301.7177
 -7943.352776 10826.92383 477275.1326
 -9538.34625 11002.88003 477241.8966
 -11192.62718 11192.62756 477201.5523
 -12899.72907 11385.56791 477153.8925
 -14643.21451 11566.46972 477099.2186
 -16392.26504 11714.54037 477038.7138
 -18093.30895 11803.52141 476975.0312
 -19647.16541 11806.56581 476913.4777
 -20822.40031 11724.3192 476865.6407
 0 0 -0
 0 0 -0
 0 0 0
 22303.17247 9614.597406 476845.8863
 21161.6129 10127.2759 476887.2988
 19691.65318 10225.46682 476948.1627
 18015.71743 10181.40861 477015.35
 16249.726 10063.71787 477081.2712
 14466.33453 9903.961061 477142.0208
 12709.16432 9723.540094 477195.7682
 11003.07327 9538.35004 477241.8921
 9360.23607 9360.043677 477280.4698
 7783.973148 9196.880922 477311.9509
 6271.354255 9054.582548 477336.9417
 4815.113287 8937.057346 477356.0673
 3405.068179 8846.945076 477369.8863
 2029.144591 8785.988053 477378.8436
 674.1067685 8755.254559 477383.2448
 -673.9036978 8755.25435 477383.2451
 -2028.941654 8785.987566 477378.8444
 -3404.865828 8846.943901 477369.8878
 -4814.911927 8937.055449 477356.0694
 -6271.154272 9054.580043 477336.9444
 -7783.775057 9196.878165 477311.9541
 -9360.040171 9360.04049 477280.4737
 -11002.87965 9538.346565 477241.8966
 -12708.97303 9723.536151 477195.7734
 -14466.14567 9903.956886 477142.0266
 -16249.53967 10063.71372 477081.2776
 -18015.5336 10181.40427 477015.357
 -19691.4717 10225.4621 476948.1703
 -21161.43344 10127.27089 476887.3068
 -22302.99472 9614.591521 476845.8948
 0 0 -0
 0 0 0
 22351.25947 8525.625147 476864.3478
 21214.54769 8637.919508 476914.2487
 19652.41726 8640.697833 476981.1235
 17907.06543 8562.688791 477051.2432
 16098.05363 8435.050326 477117.9874
 14292.41559 8279.369139 477178.2164
 12528.5426 8111.495552 477230.6681
 10827.11726 7943.356982 477275.1281
 9197.074012 7783.779004 477311.9503
 7639.286445 7639.091907 477341.7611
 6149.045633 7513.707697 477365.2739
 4717.819855 7410.632656 477383.1752
 3334.524102 7331.872763 477396.0577
 1986.429168 7278.725648 477404.3837
 659.8066442 7251.969341 477408.4676
 -659.6030902 7251.96907 477408.4678
 -1986.225899 7278.724948 477404.3845
 -3334.321361 7331.871281 477396.0591
 -4717.61807 7410.630388 477383.1773
 -6148.845446 7513.704701 477365.2765
 -7639.088225 7639.08848 477341.7643
 -9196.877825 7783.775293 477311.9542
 -10826.92343 7943.353 477275.1326
 -12528.35118 8111.491001 477230.6732
 -14292.22669 8279.364398 477178.2221
 -16097.8674 8435.045483 477117.9938
 -17906.88173 8562.683885 477051.2502
 -19652.23602 8640.692824 476981.131
 -21214.36868 8637.914039 476914.2568
 -22351.08219 8525.619141 476864.3562
 0 0 -0
 0 0 0
 22435.90179 7085.629904 476883.9434
 21221.35387 7091.467838 476939.4474
 19586.61573 7049.552785 477009.9995
 17791.54926 6960.198351 477081.6363
 15952.98784 6838.296438 477148.4163
 14133.39203 6698.223199 477207.7664
 12367.28043 6551.499856 477258.8391
 10672.24027 6406.955098 477301.7133
 9054.776026 6271.158831 477336.9406
 7513.902913 6148.849565 477365.2734
 6043.539974 6043.343057 477387.4998
 4634.170566 5956.895321 477404.3477
 3274.012935 5890.999627 477416.4307
 1949.842437 5846.608292 477424.2208
 647.5668935 5824.282545 477428.0361
 -647.3632811 5824.282226 477428.0364
 -1949.639115 5846.607376 477424.2216
 -3273.810002 5890.997841 477416.4321
 -4633.968522 5956.892572 477404.3496
 -6043.339419 6043.339609 477387.5023
 -7513.704416 6148.845604 477365.2765
 -9054.579672 6271.154404 477336.9444
 -10672.04638 6406.95043 477301.7177
 -12367.08907 6551.494811 477258.8442
 -14133.20323 6698.217908 477207.7721
 -15952.80175 6838.290946 477148.4226
 -17791.36584 6960.192795 477081.6432
 -19586.43476 7049.547008 477010.007
 -21221.17524 7091.46183 476939.4555
 -22435.72473 7085.623806 476883.9518
 0 0 -0
 23877.44834 4790.718076 476842.5188
 22752.2747 5358.26389 476891.4911
 21259.03361 5471.785714 476959.1013
 19526.42131 5452.130413 477033.3997
 17686.53576 5377.2216 477106.0084
 15825.97305 5274.726341 477172.492
 13997.64835 5159.109982 477230.8883
 12231.8109 5039.793021 477280.6874
 10543.45862 4923.454318 477322.183
 8937.251145 4814.916728 477356.0657
 7410.82867 4717.622344 477383.1741
 5957.092938 4633.972371 477404.3471
 4565.793991 4565.595197 477420.3391
 3224.631531 4513.562781 477431.7761
 1920.016267 4478.551718 477439.1348
 637.5936787 4460.955445 477442.7344
 -637.3903959 4460.955006 477442.7347
 -1919.813262 4478.55047 477439.1356
 -3224.428858 4513.560713 477431.7775
 -4565.592114 4565.592236 477420.341
 -5956.892353 4633.968608 477404.3496
 -7410.630071 4717.618128 477383.1773
 -8937.05505 4814.911959 477356.0694
 -10543.26501 4923.449141 477322.1873
 -12231.61984 5039.787281 477280.6924
 -13997.4599 5159.10392 477230.8939
 -15825.78743 5274.72014 477172.4982
 -17686.35269 5377.215205 477106.0152
 -19526.24068 5452.123991 477033.4072
 -21258.8552 5471.779129 476959.1094
 -22752.09818 5358.257063 476891.4996
 -23877.27311 4790.710621 476842.5277
 23900.82074 3677.054303 476851.2361
 22800.14442 3836.703977 476903.8733
 21242.25065 3892.305195 476975.3537
 19464.23322 3875.169333 477051.3578
 17597.94829 3818.793255 477124.3028
 15723.91447 3742.231005 477190.3452
 13890.91448 3656.566084 477247.8846
 12126.59957 3568.837834 477296.6376
 10444.21229 3483.824207 477337.0431
 8847.13926 3404.870687 477369.8841
 7332.069209 3334.325675 477396.056
 5891.197871 3273.813782 477416.4296
 4513.762035 3224.432006 477431.7755
 3187.098217 3186.898527 477442.7268
 1897.363057 3161.663222 477449.762
 630.0215171 3148.985922 477453.2001
 -629.8189801 3148.985466 477453.2003
 -1897.160775 3161.661838 477449.7628
 -3186.896284 3186.896334 477442.7282
 -4513.560571 3224.428876 477431.7775
 -5890.9976 3273.809999 477416.4321
 -7331.870943 3334.321318 477396.0591
 -8846.943479 3404.865763 477369.8878
 -10444.01914 3483.818634 477337.0473
 -12126.40903 3568.831645 477296.6425
 -13890.72646 3656.559334 477247.8901
 -15723.72921 3742.224039 477190.3513
 -17597.7658 3818.786059 477124.3096
 -19464.05317 3875.162007 477051.3652
 -21242.07279 3892.297943 476975.3617
 -22799.96839 3836.696523 476903.8818
 -23900.64588 3677.046644 476851.2449
 23916.31009 2264.179193 476859.2611
 22801.84767 2311.12941 476913.625
 21215.00381 2330.454327 476986.7544
 19414.24145 2316.982345 477063.5074
 17533.75288 2281.779939 477136.4923
 15652.46472 2234.632332 477202.1354
 13817.38182 2182.127566 477259.0382
 12054.7675 2128.571994 477307.0532
 10376.83106 2076.851179 477346.7077
 8786.182411 2028.94664 477378.8408
 7278.922346 1986.230257 477404.3815
 5846.806767 1949.64293 477424.2192
 4478.751144 1919.816586 477439.1337
 3161.863066 1897.163261 477449.7614
 1882.139857 1881.939973 477456.5814
 624.9340626 1874.294356 477459.9122
 -624.7322669 1874.293761 477459.9125
 -1881.938308 1881.938286 477456.5822
 -3161.661777 1897.160731 477449.7628
 -4478.550317 1919.813207 477439.1356
 -5846.60712 1949.639019 477424.2216
 -7278.724609 1986.225784 477404.3845
 -8785.987132 2028.941508 477378.8444
 -10376.63844 2076.845117 477346.7119
 -12054.57749 2128.565181 477307.0581
 -13817.19445 2182.120192 477259.0437
 -15652.27998 2234.624651 477202.1415
 -17533.57098 2281.771996 477136.499
 -19414.06211 2316.974353 477063.5148
 -21214.82662 2330.446424 476986.7623
 -22801.67234 2311.121294 476913.6334
 -23916.13594 2264.171049 476859.2699
 23922.91857 761.4349852 476863.697
 22798.49269 771.8133968 476918.7607
 21198.27595 776.0059384 476992.5599
 19387.11343 770.8752851 477069.6143
 17500.18405 758.8935472 477142.5772
 15615.71733 742.9876313 477207.9931
 13779.90015 725.3139206 477264.5593
 12018.34769 707.3168282 477312.1938
 10342.78289 689.9628451 477351.466
 8755.448326 673.9093036 477383.2415
 7252.165751 659.6079478 477408.4648
 5824.480879 647.3674143 477428.034
 4461.154849 637.3939284 477442.7328
 3149.185914 629.8216024 477453.199
 1874.494508 624.7339716 477459.9117
 622.3792195 622.1791443 477463.189
 -622.1785974 622.1784997 477463.1892
 -1874.293779 624.7321615 477459.9125
 -3148.985403 629.8188702 477453.2003
 -4460.954847 637.3902604 477442.7347
 -5824.28199 647.3631332 477428.0364
 -7251.968727 659.602909 477408.4678
 -8755.25394 673.9035 477383.2451
 -10342.59104 689.956263 477351.4702
 -12018.15829 707.3095416 477312.1985
 -13779.71341 725.3059565 477264.5647
 -15615.53335 742.9793444 477207.9991
 -17500.00293 758.8851858 477142.5838
 -19386.93485 770.8666366 477069.6216
 -21198.09961 775.997196 476992.5678
 -22798.31809 771.8047805 476918.7691
 -23922.7451 761.4262012 476863.7057
 23922.91817 -761.614697 476863.6967
 22798.49214 -771.9934996 476918.7605
 21198.27556 -776.1867094 476992.5596
 19387.11297 -771.0570362 477069.614
 17500.18343 -759.0764892 477142.5769
 15615.71671 -743.1720783 477207.9928
 13779.89952 -725.4999874 477264.559
 12018.3469 -707.5046306 477312.1935
 10342.78211 -690.1523307 477351.4657
 8755.447548 -674.1006478 477383.2412
 7252.165041 -659.8014365 477408.4646
 5824.480205 -647.5624827 477428.0337
 4461.154252 -637.590099 477442.7326
 3149.185182 -630.0187471 477453.1988
 1874.493911 -624.9324272 477459.9114
 622.3786747 -622.3788454 477463.1887
 -622.179235 -622.3793872 477463.189
 -1874.294377 -624.9342353 477459.9122
 -3148.985855 -630.0216906 477453.2001
 -4460.955313 -637.5938598 477442.7344
 -5824.28231 -647.5670903 477428.0361
 -7251.969046 -659.8068543 477408.4676
 -8755.254157 -674.1070001 477383.2448
 -10342.59112 -690.1596722 477351.4699
 -12018.15835 -707.5127273 477312.1982
 -13779.71361 -725.5084899 477264.5644
 -15615.53353 -743.180959 477207.9988
 -17500.00297 -759.0856186 477142.5835
 -19386.93503 -771.0661174 477069.6212
 -21198.09976 -776.1959224 476992.5674
 -22798.31804 -772.0029109 476918.7688
 -23922.74515 -761.6240016 476863.7054
 23916.30885 -2264.358859 476859.2603
 22801.84635 -2311.30949 476913.6242
 21215.00228 -2330.635191 476986.7536
 19414.23995 -2317.164023 477063.5066
 17533.75127 -2281.962684 477136.4915
 15652.46288 -2234.816592 477202.1346
 13817.37992 -2182.313286 477259.0374
 12054.76559 -2128.759434 477307.0524
 10376.82898 -2077.040398 477346.7069
 8786.180123 -2029.13782 477378.8401
 7278.920082 -1986.423352 477404.3807
 5846.804659 -1949.83766 477424.2184
 4478.749177 -1920.012584 477439.1329
 3161.861142 -1897.360307 477449.7607
 1882.138041 -1882.138274 477456.5807
 624.9322709 -1874.494146 477459.9114
 -624.7340621 -1874.494751 477459.9117
 -1881.939983 -1882.14008 477456.5814
 -3161.66318 -1897.363284 477449.762
 -4478.551584 -1920.01648 477439.1348
 -5846.60811 -1949.842657 477424.2208
 -7278.725365 -1986.429393 477404.3837
 -8785.987713 -2029.144826 477378.8436
 -10376.63896 -2077.04819 477346.711
 -12054.57803 -2128.767892 477307.0571
 -13817.19491 -2182.322301 477259.0428
 -15652.2804 -2234.825956 477202.1406
 -17533.57139 -2281.972202 477136.4981
 -19414.06235 -2317.173747 477063.5138
 -21214.82662 -2330.645146 476986.7614
 -22801.67247 -2311.319323 476913.6325
 -23916.13609 -2264.368619 476859.2689
 23900.81877 -3677.233688 476851.2348
 22800.14221 -3836.883823 476903.872
 21242.24816 -3892.485812 476975.3523
 19464.23075 -3875.350798 477051.3564
 17597.94556 -3818.975576 477124.3014
 15723.91146 -3742.414706 477190.3438
 13890.91137 -3656.75134 477247.8832
 12126.59642 -3569.024711 477296.6363
 10444.20907 -3484.0128 477337.0418
 8847.135948 -3405.061163 477369.8828
 7332.065972 -3334.518172 477396.0548
 5891.194643 -3274.008023 477416.4283
 4513.758831 -3224.627652 477431.7742
 3187.094999 -3187.095283 477442.7255
 1897.360092 -3161.861447 477449.7607
 630.0186081 -3149.185498 477453.1988
 -629.8216723 -3149.186204 477453.199
 -1897.163282 -3161.863356 477449.7614
 -3186.898472 -3187.098465 477442.7268
 -4513.562691 -3224.631778 477431.7761
 -5890.999454 -3274.013156 477416.4307
 -7331.872543 -3334.524326 477396.0577
 -8846.944766 -3405.068403 477369.8863
 -10444.02022 -3484.02096 477337.0458
 -12126.40993 -3569.033564 477296.641
 -13890.72724 -3656.760725 477247.8885
 -15723.72981 -3742.424573 477190.3497
 -17597.7663 -3818.985638 477124.308
 -19464.05352 -3875.36093 477051.3636
 -21242.07283 -3892.496269 476975.3601
 -22799.96852 -3836.894172 476903.8802
 -23900.64612 -3677.243899 476851.2434
 23877.44604 -4790.896885 476842.5172
 22752.27174 -5358.443213 476891.4892
 21259.03034 -5471.965884 476959.0994
 19526.41776 -5452.311364 477033.3978
 17686.53197 -5377.403374 477106.0065
 15825.96895 -5274.909224 477172.4901
 13997.64411 -5159.294451 477230.8864
 12231.80664 -5039.979109 477280.6856
 10543.45431 -4923.642092 477322.1811
 8937.246951 -4815.106256 477356.0638
 7410.82442 -4717.813866 477383.1723
 5957.088928 -4634.165826 477404.3453
 4565.789801 -4565.790131 477420.3373
 3224.627391 -4513.759197 477431.7742
 1920.012413 -4478.749559 477439.1329
 637.5899865 -4461.154621 477442.7326
 -637.3939821 -4461.155214 477442.7328
 -1919.816579 -4478.751457 477439.1337
 -3224.431974 -4513.762336 477431.7755
 -4565.5951 -4565.794235 477420.3391
 -5956.895196 -4634.1708 477404.3477
 -7410.632462 -4717.820062 477383.1752
 -8937.057091 -4815.113492 477356.0673
 -10543.26666 -4923.650378 477322.1852
 -12231.62126 -5039.988073 477280.6902
 -13997.46103 -5159.304068 477230.8917
 -15825.78824 -5274.919427 477172.496
 -17686.35334 -5377.413778 477106.013
 -19526.241 -5452.322074 477033.4049
 -21258.85535 -5471.976636 476959.1071
 -22752.09834 -5358.453935 476891.4974
 -23877.27351 -4790.907231 476842.5257
 0 0 0
 22435.8981 -7085.808682 476883.9409
 21221.35007 -7091.647208 476939.4449
 19586.61153 -7049.733019 477009.997
 17791.54457 -6960.37939 477081.6338
 15952.98281 -6838.478605 477148.4139
 14133.3867 -6698.406741 477207.764
 12367.27496 -6551.684859 477258.8367
 10672.23467 -6407.141651 477301.7109
 9054.770618 -6271.347151 477336.9383
 7513.897617 -6149.039652 477365.271
 6043.534808 -6043.535175 477387.4974
 4634.165534 -5957.089335 477404.3453
 3274.007822 -5891.195081 477416.4283
 1949.837518 -5846.805103 477424.2184
 647.5624161 -5824.480648 477428.0337
 -647.3674313 -5824.481278 477428.034
 -1949.642917 -5846.807142 477424.2192
 -3273.813722 -5891.198175 477416.4296
 -4633.9723 -5957.093217 477404.3471
 -6043.342938 -6043.540196 477387.4998
 -7513.70754 -6149.045837 477365.2739
 -9054.58233 -6271.354439 477336.9417
 -10672.0485 -6407.150081 477301.715
 -12367.09089 -6551.693966 477258.8414
 -14133.20469 -6698.416408 477207.7693
 -15952.80287 -6838.488753 477148.4197
 -17791.36665 -6960.389896 477081.6403
 -19586.43538 -7049.743651 477010.004
 -21221.17566 -7091.657947 476939.4525
 -22435.72498 -7085.819527 476883.9489
 0 0 -0
 0 0 0
 22351.25583 -8525.802988 476864.3448
 21214.5434 -8638.098027 476914.2457
 19652.41226 -8640.877108 476981.1204
 17907.06001 -8562.868899 477051.2402
 16098.04787 -8435.231464 477117.9844
 14292.40949 -8279.551513 477178.2134
 12528.53625 -8111.679212 477230.6651
 10827.1105 -7943.542118 477275.1252
 9197.06727 -7783.965719 477311.9474
 7639.279926 -7639.280317 477341.7582
 6149.039337 -7513.898041 477365.271
 4717.813631 -7410.824897 477383.1723
 3334.518009 -7332.066465 477396.0547
 1986.423274 -7278.920591 477404.3807
 659.8014106 -7252.165524 477408.4646
 -659.6079306 -7252.166212 477408.4648
 -1986.230202 -7278.92274 477404.3815
 -3334.325613 -7332.069563 477396.056
 -4717.622253 -7410.828949 477383.1741
 -6148.849461 -7513.903155 477365.2734
 -7639.091766 -7639.286642 477341.7611
 -9196.880728 -7783.973324 477311.9509
 -10826.92586 -7943.550654 477275.1292
 -12528.35354 -8111.688134 477230.6698
 -14292.22864 -8279.560913 477178.2187
 -16097.86893 -8435.241335 477117.9902
 -17906.88283 -8562.87922 477051.2467
 -19652.23672 -8640.887805 476981.1275
 -21214.36934 -8638.108639 476914.2532
 -22351.08304 -8525.813327 476864.3527
 0 0 -0
 0 0 0
 22303.1687 -9614.774522 476845.8829
 21161.60813 -10127.45349 476887.2952
 19691.64784 -10225.64496 476948.1591
 18015.71138 -10181.58754 477015.3464
 16249.71946 -10063.89784 477081.2676
 14466.32771 -9904.142123 477142.0173
 12709.15706 -9723.722306 477195.7647
 11003.06568 -9538.533669 477241.8886
 9360.228353 -9360.228753 477280.4663
 7783.965383 -9197.067691 477311.9474
 6271.346876 -9054.771104 477336.9383
 4815.106066 -8937.247457 477356.0638
 3405.061057 -8847.136496 477369.8828
 2029.137783 -8786.180665 477378.84
 674.10067 -8755.448084 477383.2412
 -673.9092364 -8755.448814 477383.2415
 -2028.946561 -8786.182856 477378.8408
 -3404.870585 -8847.139631 477369.8841
 -4814.91663 -8937.251463 477356.0656
 -6271.158715 -9054.77628 477336.9406
 -7783.778866 -9197.074225 477311.9503
 -9360.043495 -9360.236254 477280.4698
 -11002.88247 -9538.542031 477241.8926
 -12708.97559 -9723.731187 477195.7694
 -14466.14796 -9904.151353 477142.0225
 -16249.54139 -10063.90762 477081.2734
 -18015.53498 -10181.59767 477015.3529
 -19691.47294 -10225.65515 476948.1661
 -21161.43442 -10127.46377 476887.3027
 -22302.99587 -9614.784463 476845.8908
 0 0 -0
 0 0 0
 0 0 0
 20822.57527 -11724.50055 476865.6286
 19647.34141 -11806.74718 476913.4659
 18093.4865 -11803.70316 476975.0199
 16392.44449 -11714.72296 477038.7032
 14643.39595 -11566.65321 477099.2085
 12899.91247 -11385.75233 477153.8831
 11192.81235 -11192.81274 477201.5436
 9538.533306 -11003.06609 477241.8886
 7943.541801 -10827.11096 477275.1252
 6407.141416 -10672.23515 477301.7109
 4923.641937 -10543.45486 477322.1811
 3484.012734 -10444.20962 477337.0418
 2077.040404 -10376.82956 477346.7069
 690.1524003 -10342.78267 477351.4657
 -689.9627463 -10342.78341 477351.466
 -2076.85105 -10376.83154 477346.7077
 -3483.824083 -10444.21271 477337.0431
 -4923.454186 -10543.45897 477322.183
 -6406.954967 -10672.24057 477301.7133
 -7943.356831 -10827.1175 477275.1281
 -9538.349859 -11003.07348 477241.8921
 -11192.63039 -11192.8208 477201.5477
 -12899.73185 -11385.76098 477153.8878
 -14643.2169 -11566.66233 477099.2138
 -16392.26702 -11714.7325 477038.709
 -18093.31054 -11803.71311 476975.0264
 -19647.16682 -11806.75723 476913.4729
 -20822.40161 -11724.51052 476865.6359
 0 0 -0
 0 0 -0
 0 0 0
 0 0 0
 20711.23677 -12828.29907 476842.0606
 19577.99256 -13233.68101 476878.8559
 18127.50794 -13376.16295 476932.2206
 16506.43068 -13361.08148 476991.4994
 14806.62649 -13250.80352 477050.3656
 13087.27739 -13087.27778 477105.1432
 11385.75194 -12899.91286 477153.8831
 9723.721947 -12709.15748 477195.7647
 8111.678913 -12528.53669 477230.6651
 6551.684636 -12367.27546 477258.8367
 5039.978982 -12231.80717 477280.6856
 3569.024668 -12126.59699 477296.6363
 2128.759476 -12054.76617 477307.0524
 707.5047273 -12018.34748 477312.1935
 -707.3166837 -12018.34824 477312.1938
 -2128.571839 -12054.76801 477307.0532
 -3568.837666 -12126.60002 477296.6376
 -5039.792862 -12231.81129 477280.6874
 -6551.499694 -12367.28077 477258.8391
 -8111.495384 -12528.5429 477230.6681
 -9723.539894 -12709.16457 477195.7682
 -11385.57102 -12899.92067 477153.8872
 -13087.09768 -13087.28631 477105.1479
 -14806.4481 -13250.81231 477050.3709
 -16506.25366 -13361.09091 476991.5053
 -18127.33233 -13376.17261 476932.227
 -19577.81806 -13233.691 476878.8628
 -20711.0632 -12828.30897 476842.0678
 0 0 -0
 0 0 -0
 0 0 0
 0 0 0
 0 0 0
 19254.88511 -14472.56175 476856.0219
 18032.52924 -14849.53991 476892.2209
 16547.49344 -14963.63501 476942.4927
 14927.53856 -14927.53895 476997.0739
 13250.8031 -14806.62686 477050.3656
 11566.65281 -14643.3963 477099.2085
 9904.141747 -14466.32809 477142.0172
 8279.551207 -14292.4099 477178.2134
 6698.406519 -14133.38716 477207.764
 5159.294323 -13997.64462 477230.8864
 3656.751314 -13890.91191 477247.8832
 2182.313338 -13817.38049 477259.0374
 725.5001124 -13779.9001 477264.559
 -725.3137572 -13779.90071 477264.5593
 -2182.127373 -13817.38236 477259.0382
 -3656.565889 -13890.91497 477247.8845
 -5159.109787 -13997.6488 477230.8883
 -6698.223009 -14133.39243 477207.7664
 -8279.36894 -14292.41595 477178.2164
 -9903.960852 -14466.33484 477142.0208
 -11566.47301 -14643.40384 477099.2127
 -13250.6243 -14806.63494 477050.3703
 -14927.36086 -14927.54761 476997.0791
 -16547.31687 -14963.64395 476942.4986
 -18032.35366 -14849.54909 476892.2272
 -19254.71042 -14472.57124 476856.0287
 0 0 -0
 0 0 -0
 0 0 -0
 0 0 0
 0 0 0
 0 0 0
 0 0 0
 17686.74943 -16094.78661 476864.7691
 16448.8656 -16448.86598 476896.9919
 14963.63457 -16547.49378 476942.4927
 13361.08103 -16506.43099 476991.4994
 11714.72251 -16392.4448 477038.7032
 10063.89744 -16249.71978 477081.2676
 8435.231132 -16098.04822 477117.9844
 6838.478368 -15952.98321 477148.4138
 5274.90909 -15825.96941 477172.4901
 3742.414669 -15723.91197 477190.3438
 2234.816652 -15652.46344 477202.1346
 743.1722081 -15615.71729 477207.9928
 -742.9874466 -15615.7179 477207.993
 -2234.632121 -15652.46528 477202.1354
 -3742.23078 -15723.915 477190.3451
 -5274.726116 -15825.97355 477172.492
 -6838.296216 -15952.9883 477148.4163
 -8435.050104 -16098.05406 477117.9874
 -10063.71763 -16249.72638 477081.2711
 -11714.54374 -16392.45206 477038.7073
 -13360.90314 -16506.43899 476991.5042
 -14963.45757 -16547.50202 476942.498
 -16448.68923 -16448.87424 476896.9977
 -17686.57365 -16094.79517 476864.7754
 0 0 -0
 0 0 -0
 0 0 -0
 0 0 -0
 0 0 0
 0 0 0
 0 0 0
 0 0 0
 0 0 0
 16094.78617 -17686.74976 476864.7691
 14849.53943 -18032.52952 476892.2209
 13376.16245 -18127.50819 476932.2206
 11803.70269 -18093.48674 476975.0199
 10181.5871 -18015.71164 477015.3464
 8562.868545 -17907.06031 477051.2402
 6960.379127 -17791.54492 477081.6338
 5377.403218 -17686.53238 477106.0065
 3818.97553 -17597.94604 477124.3014
 2281.962735 -17533.7518 477136.4915
 759.0766189 -17500.18398 477142.5769
 -758.8933566 -17500.18463 477142.5771
 -2281.779712 -17533.75346 477136.4923
 -3818.793009 -17597.94886 477124.3028