# OOMMF OVF 2.0
#
# Segment count: 1
#
# Begin: Segment
# Begin: Header
#
# Title: Oxs_MinDriver::Magnetization
# Desc: Oxs vector field output
# Desc:  MIF source file: F:/Bogdan/UNIC/2022/Master_degree/Samples/Cylinder0_5000 1.mif
# Desc:  Iteration: 963, State id: 6569
# Desc:  Stage: 5, Stage iteration: 44
# Desc:  Stage simulation time: 0 s
# Desc:  Total simulation time: -2 s
# meshunit: m
# meshtype: rectangular
# xbase: -8.9999999999999995e-09
# ybase: -8.9999999999999995e-09
# zbase: -2.0999999999999999e-08
# xnodes: 10
# ynodes: 10
# znodes: 22
# xstepsize: 2.0000000000000001e-09
# ystepsize: 2.0000000000000001e-09
# zstepsize: 2.0000000000000001e-09
# xmin: -1e-08
# ymin: -1e-08
# zmin: -2.1999999999999998e-08
# xmax: 1e-08
# ymax: 1e-08
# zmax: 2.2000000000000005e-08
# valuedim: 3
# valuelabels: Magnetization_x Magnetization_y Magnetization_z
# valueunits: A/m A/m A/m
#
# End: Header
#
# Begin: Data Text
 0 0 0
 0 0 0
 0 0 0
 8010.188517 30094.79093 476447.2812
 3012.900241 30302.62623 476491.9145
 -3012.900247 30302.62623 476491.9145
 -8010.188524 30094.79093 476447.2812
 0 0 -0
 0 0 -0
 0 0 -0
 0 0 0
 22358.37422 22358.37417 476415.8661
 17757.15556 23299.55021 476564.4612
 10515.60308 25268.48267 476678.9246
 3553.709834 25794.02762 476753.5113
 -3553.709841 25794.02761 476753.5113
 -10515.60309 25268.48267 476678.9246
 -17757.15556 23299.55021 476564.4612
 -22358.37423 22358.37417 476415.8661
 0 0 -0
 0 0 0
 23299.55026 17757.15551 476564.4612
 18311.11609 18311.11602 476761.2373
 11343.48197 19071.86403 476948.0692
 3834.736282 19404.34268 477054.1244
 -3834.736289 19404.34269 477054.1244
 -11343.48197 19071.86402 476948.0692
 -18311.11609 18311.11603 476761.2373
 -23299.55026 17757.15551 476564.4612
 0 0 -0
 30094.79098 8010.188468 476447.2812
 25268.48273 10515.60302 476678.9246
 19071.86406 11343.48194 476948.0692
 11789.96528 11789.96519 477172.7829
 3983.212637 11985.79234 477296.9161
 -3983.212644 11985.79233 477296.9161
 -11789.96528 11789.96521 477172.7829
 -19071.86407 11343.48193 476948.0692
 -25268.48274 10515.60302 476678.9246
 -30094.79099 8010.188467 476447.2812
 30302.62629 3012.900183 476491.9145
 25794.02766 3553.709798 476753.5113
 19404.34276 3834.736202 477054.1244
 11985.79236 3983.212619 477296.9161
 4048.309613 4048.309519 477429.6741
 -4048.30962 4048.309533 477429.6741
 -11985.79237 3983.212607 477296.9161
 -19404.34277 3834.736211 477054.1244
 -25794.02766 3553.709792 476753.5113
 -30302.6263 3012.900185 476491.9145
 30302.62628 -3012.900295 476491.9145
 25794.02768 -3553.70991 476753.5113
 19404.34272 -3834.736316 477054.1244
 11985.79242 -3983.212732 477296.9161
 4048.309547 -4048.309635 477429.6741
 -4048.309554 -4048.309646 477429.6741
 -11985.79243 -3983.212722 477296.9161
 -19404.34272 -3834.736324 477054.1244
 -25794.02769 -3553.709905 476753.5113
 -30302.62629 -3012.900296 476491.9145
 30094.79099 -8010.188579 476447.2812
 25268.48271 -10515.60313 476678.9246
 19071.8641 -11343.48205 476948.0692
 11789.96523 -11789.96531 477172.7829
 3983.212696 -11985.79245 477296.9161
 -3983.212703 -11985.79245 477296.9161
 -11789.96523 -11789.96532 477172.7829
 -19071.86411 -11343.48204 476948.0692
 -25268.48272 -10515.60313 476678.9246
 -30094.791 -8010.188578 476447.2812
 0 0 0
 23299.55027 -17757.15562 476564.4612
 18311.11606 -18311.11613 476761.2373
 11343.482 -19071.86414 476948.0692
 3834.736237 -19404.3428 477054.1244
 -3834.736244 -19404.3428 477054.1244
 -11343.48201 -19071.86414 476948.0692
 -18311.11607 -18311.11614 476761.2373
 -23299.55028 -17757.15562 476564.4612
 0 0 -0
 0 0 0
 22358.37422 -22358.37428 476415.8661
 17757.15557 -23299.55032 476564.4612
 10515.60306 -25268.48278 476678.9246
 3553.709862 -25794.02773 476753.5113
 -3553.709868 -25794.02773 476753.5113
 -10515.60307 -25268.48278 476678.9246
 -17757.15558 -23299.55032 476564.4612
 -22358.37423 -22358.37428 476415.8661
 0 0 -0
 0 0 0
 0 0 0
 0 0 0
 8010.188523 -30094.79104 476447.2812
 3012.900232 -30302.62634 476491.9145
 -3012.900239 -30302.62634 476491.9145
 -8010.18853 -30094.79104 476447.2812
 0 0 -0
 0 0 -0
 0 0 -0
 0 0 0
 0 0 0
 0 0 0
 6677.525428 25916.46496 476713.3508
 2570.071214 26109.79078 476742.6401
 -2570.071221 26109.79077 476742.6401
 -6677.525434 25916.46497 476713.3508
 0 0 -0
 0 0 -0
 0 0 -0
 0 0 0
 19217.99719 19217.99715 476689.8451
 15475.88601 20106.70619 476789.3546
 9142.210696 22100.77956 476864.6001
 3109.562416 22707.62143 476913.5832
 -3109.562423 22707.62146 476913.5832
 -9142.210703 22100.77954 476864.6001
 -15475.88601 20106.7062 476789.3546
 -19217.9972 19217.99715 476689.8451
 0 0 -0
 0 0 0
 20106.70626 15475.88593 476789.3546
 16118.88349 16118.88349 476919.5262
 10074.76619 16958.24504 477056.3785
 3421.258645 17347.61349 477136.4863
 -3421.258652 17347.61345 477136.4863
 -10074.76619 16958.24508 477056.3785
 -16118.8835 16118.88347 476919.5262
 -20106.70626 15475.88594 476789.3546
 0 0 -0
 25916.46502 6677.525368 476713.3508
 22100.77957 9142.210684 476864.6001
 16958.24517 10074.76607 477056.3785
 10583.56925 10583.5693 477229.3447
 3590.843683 10810.7774 477328.0887
 -3590.843689 10810.77745 477328.0887
 -10583.56926 10583.56926 477229.3447
 -16958.24517 10074.7661 477056.3785
 -22100.77957 9142.210669 476864.6001
 -25916.46503 6677.525372 476713.3508
 26109.79081 2570.071178 476742.6401
 22707.62154 3109.562317 476913.5832
 17347.61345 3421.258672 477136.4863
 10810.77756 3590.843527 477328.0887
 3665.993495 3665.99356 477435.8515
 -3665.993502 3665.993518 477435.8515
 -10810.77757 3590.843564 477328.0887
 -17347.61346 3421.258644 477136.4863
 -22707.62154 3109.562334 476913.5832
 -26109.79082 2570.071173 476742.6401
 26109.79084 -2570.071286 476742.6401
 22707.62146 -3109.562428 476913.5832
 17347.61358 -3421.258779 477136.4863
 10810.77739 -3590.843642 477328.0887
 3665.993688 -3665.993667 477435.8515
 -3665.993695 -3665.993634 477435.8515
 -10810.7774 -3590.843671 477328.0887
 -17347.61359 -3421.258757 477136.4863
 -22707.62147 -3109.562442 476913.5832
 -26109.79084 -2570.071282 476742.6401
 25916.46501 -6677.525477 476713.3508
 22100.77963 -9142.21079 476864.6001
 16958.24506 -10074.76618 477056.3785
 10583.56941 -10583.5694 477229.3447
 3590.843512 -10810.77752 477328.0887
 -3590.843519 -10810.77755 477328.0887
 -10583.56941 -10583.56938 477229.3447
 -16958.24506 -10074.7662 477056.3785
 -22100.77964 -9142.210781 476864.6001
 -25916.46502 -6677.525479 476713.3508
 0 0 0
 20106.70623 -15475.88605 476789.3545
 16118.88357 -16118.88359 476919.5262
 10074.76608 -16958.24517 477056.3785
 3421.258775 -17347.61358 477136.4863
 -3421.258782 -17347.61357 477136.4863
 -10074.76608 -16958.24518 477056.3785
 -16118.88357 -16118.88358 476919.5262
 -20106.70623 -15475.88605 476789.3545
 0 0 -0
 0 0 0
 19217.99721 -19217.99726 476689.8451
 15475.88598 -20106.7063 476789.3545
 9142.21076 -22100.77966 476864.6001
 3109.562338 -22707.62155 476913.5832
 -3109.562344 -22707.62156 476913.5832
 -9142.210766 -22100.77965 476864.6001
 -15475.88598 -20106.7063 476789.3545
 -19217.99721 -19217.99726 476689.8451
 0 0 -0
 0 0 0
 0 0 0
 0 0 0
 6677.525413 -25916.46507 476713.3508
 2570.071239 -26109.79088 476742.6401
 -2570.071246 -26109.79088 476742.6401
 -6677.52542 -25916.46507 476713.3508
 0 0 -0
 0 0 -0
 0 0 -0
 0 0 0
 0 0 0
 0 0 0
 5293.642005 20944.14351 476975.0429
 2050.514971 21107.64763 476992.8028
 -2050.514977 21107.64765 476992.8028
 -5293.642011 20944.14351 476975.0429
 0 0 -0
 0 0 -0
 0 0 -0
 0 0 0
 15524.29436 15524.2943 476958.975
 12571.3913 16278.37159 477020.8025
 7415.673428 18001.0787 477066.9138
 2527.981444 18567.57119 477096.1391
 -2527.98145 18567.57115 477096.1391
 -7415.673434 18001.07873 477066.9138
 -12571.39131 16278.37157 477020.8025
 -15524.29437 15524.29431 476958.975
 0 0 -0
 0 0 0
 16278.37161 12571.39128 477020.8025
 13181.23547 13181.23535 477099.97
 8295.014086 13978.00411 477187.2583
 2827.556472 14367.19752 477239.4157
 -2827.556478 14367.19758 477239.4157
 -8295.014093 13978.00406 477187.2583
 -13181.23548 13181.23538 477099.97
 -16278.37161 12571.39127 477020.8025
 0 0 -0
 20944.14355 5293.641971 476975.0428
 18001.07881 7415.673318 477066.9138
 13978.00405 8295.014145 477187.2583
 8801.390983 8801.390786 477301.7309
 2999.581155 9035.962142 477369.066
 -2999.581162 9035.962069 477369.066
 -8801.390988 8801.39085 477301.7309
 -13978.00406 8295.014098 477187.2583
 -18001.07882 7415.673343 477066.9138
 -20944.14355 5293.641965 476975.0428
 21107.64771 2050.514899 476992.8028
 18567.57116 2527.981468 477096.1391
 14367.1977 2827.5563 477239.4157
 9035.962024 2999.581266 477369.066
 3078.211447 3078.211214 477444.1544
 -3078.211453 3078.211283 477444.1544
 -9035.962032 2999.581205 477369.066
 -14367.19771 2827.556346 477239.4157
 -18567.57117 2527.98144 477096.1391
 -21107.64772 2050.514908 476992.8028
 21107.64767 -2050.515004 476992.8028
 18567.57128 -2527.981571 477096.1391
 14367.1975 -2827.55641 477239.4157
 9035.962288 -2999.581367 477369.066
 3078.211151 -3078.211328 477444.1544
 -3078.211158 -3078.211383 477444.1544
 -9035.962293 -2999.581318 477369.066
 -14367.19751 -2827.556448 477239.4157
 -18567.57129 -2527.981548 477096.1391
 -21107.64768 -2050.515012 476992.8028
 20944.14357 -5293.642074 476975.0428
 18001.07872 -7415.673428 477066.9138
 13978.00422 -8295.01424 477187.2582
 8801.390753 -8801.390908 477301.7309
 2999.581417 -9035.962231 477369.066
 -2999.581423 -9035.962194 477369.066
 -8801.39076 -8801.390941 477301.7309
 -13978.00422 -8295.014214 477187.2582
 -18001.07872 -7415.673443 477066.9138
 -20944.14358 -5293.64207 476975.0428
 0 0 0
 16278.37165 -12571.39138 477020.8025
 13181.23536 -13181.23546 477099.97
 8295.014257 -13978.0042 477187.2582
 2827.556272 -14367.19765 477239.4157
 -2827.556279 -14367.19767 477239.4157
 -8295.014263 -13978.00418 477187.2582
 -13181.23536 -13181.23548 477099.97
 -16278.37166 -12571.39138 477020.8025
 0 0 -0
 0 0 0
 15524.29434 -15524.29441 476958.975
 12571.39135 -16278.37169 477020.8025
 7415.673332 -18001.07882 477066.9138
 2527.981564 -18567.57128 477096.1391
 -2527.981571 -18567.57127 477096.1391
 -7415.673338 -18001.07882 477066.9138
 -12571.39136 -16278.37168 477020.8025
 -15524.29435 -15524.29441 476958.975
 0 0 -0
 0 0 0
 0 0 0
 0 0 0
 5293.642029 -20944.14362 476975.0428
 2050.514933 -21107.64774 476992.8028
 -2050.51494 -21107.64775 476992.8028
 -5293.642035 -20944.14361 476975.0428
 0 0 -0
 0 0 -0
 0 0 -0
 0 0 0
 0 0 0
 0 0 0
 4078.151681 16312.92616 477167.82
 1581.941472 16440.39967 477178.2497
 -1581.941478 16440.39965 477178.2497
 -4078.151686 16312.92617 477167.82
 0 0 -0
 0 0 -0
 0 0 -0
 0 0 0
 12092.5374 12092.53737 477157.6389
 9807.823492 12686.4837 477194.6469
 5777.721581 14061.75934 477221.915
 1970.358398 14529.3543 477238.8153
 -1970.358403 14529.35436 477238.8153
 -5777.721588 14061.7593 477221.915
 -9807.823498 12686.48372 477194.6469
 -12092.5374 12092.53736 477157.6389
 0 0 -0
 0 0 0
 12686.48378 9807.823406 477194.6469
 10314.88043 10314.88048 477241.1107
 6513.805643 10985.41996 477293.1617
 2225.110444 11322.92354 477324.5349
 -2225.11045 11322.92345 477324.5349
 -6513.805648 10985.42003 477293.1617
 -10314.88044 10314.88043 477241.1107
 -12686.48379 9807.823426 477194.6469
 0 0 -0
 16312.92623 4078.151616 477167.82
 14061.75931 5777.721611 477221.915
 10985.42015 6513.80546 477293.1617
 6954.810892 6954.811029 477362.6844
 2377.47661 7165.051293 477404.316
 -2377.476615 7165.051393 477404.316
 -6954.810899 6954.810942 477362.6845
 -10985.42015 6513.805523 477293.1617
 -14061.75931 5777.721576 477221.915
 -16312.92623 4078.151624 477167.82
 16440.39968 1581.941454 477178.2497
 14529.35445 1970.358258 477238.8153
 11322.92342 2225.11055 477324.5349
 7165.051552 2377.47636 477404.316
 2449.075399 2449.07558 477451.4377
 -2449.075405 2449.075485 477451.4377
 -7165.051556 2377.476444 477404.316
 -11322.92343 2225.110486 477324.5349
 -14529.35446 1970.358296 477238.8153
 -16440.39969 1581.941442 477178.2497
 16440.39973 -1581.941553 477178.2497
 14529.3543 -1970.358361 477238.8153
 11322.92367 -2225.110645 477324.5349
 7165.051229 -2377.476469 477404.316
 2449.075762 -2449.075673 477451.4377
 -2449.075768 -2449.075596 477451.4377
 -7165.051237 -2377.476537 477404.316
 -11322.92367 -2225.110592 477324.5349
 -14529.35431 -1970.358394 477238.8153
 -16440.39973 -1581.941543 477178.2497
 16312.9262 -4078.151717 477167.82
 14061.75943 -5777.721704 477221.915
 10985.41994 -6513.805574 477293.1617
 6954.811175 -6954.81111 477362.6844
 2377.476288 -7165.051418 477404.316
 -2377.476294 -7165.051471 477404.316
 -6954.811179 -6954.811063 477362.6844
 -10985.41994 -6513.80561 477293.1617
 -14061.75943 -5777.721682 477221.915
 -16312.9262 -4078.151722 477167.82
 0 0 0
 12686.48372 -9807.823512 477194.6469
 10314.88057 -10314.88056 477241.1107
 6513.805434 -10985.42008 477293.1617
 2225.110689 -11322.92361 477324.5349
 -2225.110694 -11322.92358 477324.5349
 -6513.805441 -10985.42011 477293.1617
 -10314.88058 -10314.88055 477241.1107
 -12686.48373 -9807.823521 477194.6469
 0 0 -0
 0 0 0
 12092.53742 -12092.53746 477157.6389
 9807.823434 -12686.4838 477194.6469
 5777.7217 -14061.75943 477221.915
 1970.35825 -14529.35443 477238.8153
 -1970.358256 -14529.35444 477238.8153
 -5777.721705 -14061.75941 477221.915
 -9807.82344 -12686.48381 477194.6469
 -12092.53743 -12092.53746 477157.6389
 0 0 -0
 0 0 0
 0 0 0
 0 0 0
 4078.151653 -16312.92626 477167.82
 1581.941519 -16440.39976 477178.2497
 -1581.941525 -16440.39975 477178.2497
 -4078.151659 -16312.92627 477167.82
 0 0 -0
 0 0 -0
 0 0 -0
 0 0 0
 0 0 0
 0 0 0
 3075.341313 12383.32574 477293.4808
 1193.214246 12477.41903 477299.4464
 -1193.21425 12477.41906 477299.4464
 -3075.341318 12383.32572 477293.4808
 0 0 -0
 0 0 -0
 0 0 -0
 0 0 0
 9181.690135 9181.690076 477287.4023
 7446.488549 9628.174886 477308.8302
 4380.507793 10679.63186 477324.4472
 1493.438343 11041.01173 477333.9889
 -1493.438348 11041.01166 477333.9889
 -4380.507797 10679.63191 477324.4472
 -7446.488555 9628.17486 477308.8302
 -9181.69014 9181.690085 477287.4023
 0 0 -0
 0 0 0
 9628.174885 7446.488548 477308.8302
 7837.951423 7837.951273 477335.3165
 4955.621154 8362.324139 477365.0434
 1694.285548 8630.245803 477382.9904
 -1694.285553 8630.245909 477382.9904
 -4955.62116 8362.32405 477365.0434
 -7837.951427 7837.951332 477335.3165
 -9628.174891 7446.488524 477308.8302
 0 0 -0
 12383.32576 3075.341289 477293.4808
 10679.632 4380.507663 477324.4472
 8362.324027 4955.62126 477365.0434
 5307.50063 5307.50038 477404.9981
 1817.185391 5478.092139 477429.1148
 -1817.185397 5478.092015 477429.1148
 -5307.500633 5307.500487 477404.9981
 -8362.324034 4955.621181 477365.0434
 -10679.632 4380.507707 477324.4472
 -12383.32576 3075.341279 477293.4808
 12477.41911 1193.214169 477299.4464
 11041.01166 1493.4384 477333.9889
 8630.246033 1694.285333 477382.9904
 5478.09195 1817.18557 477429.1148
 1875.956579 1875.956279 477456.6293
 -1875.956583 1875.956399 477456.6293
 -5478.091957 1817.185464 477429.1148
 -8630.246036 1694.285413 477382.9904
 -11041.01167 1493.438352 477333.9889
 -12477.41912 1193.214184 477299.4464
 12477.41906 -1193.214264 477299.4464
 11041.01182 -1493.438492 477333.9889
 8630.245769 -1694.285434 477382.9904
 5478.092295 -1817.185657 477429.1148
 1875.95619 -1875.956386 477456.6293
 -1875.956196 -1875.956485 477456.6293
 -5478.092298 -1817.185569 477429.1148
 -8630.245776 -1694.285502 477382.9904
 -11041.01183 -1493.43845 477333.9889
 -12477.41907 -1193.214277 477299.4464
 12383.32579 -3075.341382 477293.4808
 10679.63187 -4380.507766 477324.4472
 8362.324253 -4955.621339 477365.0434
 5307.500328 -5307.500498 477404.9981
 1817.185735 -5478.092208 477429.1148
 -1817.185739 -5478.092137 477429.1148
 -5307.500334 -5307.500561 477404.9981
 -8362.324256 -4955.621292 477365.0434
 -10679.63187 -4380.507794 477324.4472
 -12383.32579 -3075.341375 477293.4808
 0 0 0
 9628.17495 -7446.488637 477308.8302
 7837.951271 -7837.951384 477335.3165
 4955.621378 -8362.324208 477365.0434
 1694.285286 -8630.24593 477382.9904
 -1694.285292 -8630.245972 477382.9904
 -4955.621382 -8362.324171 477365.0434
 -7837.951277 -7837.951411 477335.3165
 -9628.174954 -7446.488625 477308.8302
 0 0 -0
 0 0 0
 9181.690115 -9181.690173 477287.4023
 7446.488614 -9628.174972 477308.8302
 4380.507667 -10679.63197 477324.4472
 1493.438501 -11041.0118 477333.9889
 -1493.438506 -11041.01178 477333.9889
 -4380.507672 -10679.63199 477324.4472
 -7446.488618 -9628.174963 477308.8302
 -9181.69012 -9181.690177 477287.4023
 0 0 -0
 0 0 0
 0 0 0
 0 0 0
 3075.341344 -12383.32583 477293.4808
 1193.214196 -12477.41914 477299.4464
 -1193.214201 -12477.41914 477299.4464
 -3075.341349 -12383.32582 477293.4808
 0 0 -0
 0 0 -0
 0 0 -0
 0 0 0
 0 0 0
 0 0 0
 2274.959923 9199.147374 477369.9525
 882.6019473 9266.175821 477373.261
 -882.6019516 9266.175795 477373.261
 -2274.959927 9199.14739 477369.9525
 0 0 -0
 0 0 -0
 0 0 -0
 0 0 0
 6822.55194 6822.551914 477366.5016
 5529.403857 7147.873366 477378.4713
 3248.297574 7928.682959 477387.1132
 1106.854279 8197.059141 477392.3485
 -1106.854283 8197.059221 477392.3485
 -3248.297578 7928.682896 477387.1132
 -5529.403861 7147.873397 477378.4713
 -6822.551945 6822.551903 477366.5016
 0 0 -0
 0 0 0
 7147.873454 5529.40377 477378.4713
 5818.362646 5818.362711 477393.0923
 3678.607633 6209.948026 477409.4424
 1257.809705 6411.277234 477419.2966
 -1257.80971 6411.27711 477419.2966
 -3678.607637 6209.94813 477409.4424
 -5818.362651 5818.362641 477393.0923
 -7147.873458 5529.403798 477378.4713
 0 0 -0
 9199.14744 2274.95986 477369.9525
 7928.68291 3248.297616 477387.1132
 6209.948228 3678.607438 477409.4424
 3944.111152 3944.111316 477431.4184
 1351.104283 4073.849738 477444.7084
 -1351.104287 4073.849885 477444.7084
 -3944.111158 3944.111189 477431.4184
 -6209.948231 3678.607531 477409.4424
 -7928.682915 3248.297565 477387.1132
 -9199.147444 2274.959872 477369.9525
 9266.175827 882.6019373 477373.261
 8197.059301 1106.854133 477392.3485
 6411.277089 1257.809835 477419.2966
 4073.85002 1351.104012 477444.7084
 1396.109114 1396.109329 477459.9177
 -1396.109119 1396.109184 477459.9177
 -4073.850022 1351.10414 477444.7084
 -6411.277096 1257.809737 477419.2966
 -8197.059303 1106.854191 477392.3485
 -9266.175832 882.601919 477373.261
 9266.175876 -882.6020262 477373.261
 8197.059148 -1106.854226 477392.3485
 6411.277342 -1257.809919 477419.2966
 4073.84969 -1351.104112 477444.7084
 1396.109486 -1396.109409 477459.9177
 -1396.109489 -1396.109286 477459.9177
 -4073.849696 -1351.104222 477444.7084
 -6411.277344 -1257.809835 477419.2966
 -8197.059154 -1106.854278 477392.3485
 -9266.17588 -882.6020098 477373.261
 9199.147411 -2274.959951 477369.9525
 7928.683032 -3248.297698 477387.1132
 6209.948013 -3678.607544 477409.4424
 3944.111441 -3944.111383 477431.4184
 1351.103955 -4073.849857 477444.7084
 -1351.10396 -4073.849948 477444.7084
 -3944.111443 -3944.111303 477431.4184
 -6209.94802 -3678.607606 477409.4424
 -7928.683035 -3248.297663 477387.1132
 -9199.147416 -2274.95996 477369.9525
 0 0 0
 7147.873395 -5529.403867 477378.4713
 5818.362793 -5818.362784 477393.0923
 3678.60742 -6209.948144 477409.4424
 1257.809956 -6411.277291 477419.2966
 -1257.809959 -6411.277234 477419.2966
 -3678.607426 -6209.948194 477409.4424
 -5818.362795 -5818.362748 477393.0923
 -7147.8734 -5529.403883 477378.4713
 0 0 -0
 0 0 0
 6822.551963 -6822.552001 477366.5016
 5529.403797 -7147.873466 477378.4713
 3248.297695 -7928.68303 477387.1132
 1106.854128 -8197.059257 477392.3485
 -1106.854133 -8197.059286 477392.3485
 -3248.297698 -7928.683006 477387.1132
 -5529.403802 -7147.873478 477378.4713
 -6822.551967 -6822.551996 477366.5016
 0 0 -0
 0 0 0
 0 0 0
 0 0 0
 2274.959894 -9199.147471 477369.9525
 882.6019953 -9266.175903 477373.261
 -882.6019994 -9266.175895 477373.261
 -2274.959899 -9199.147476 477369.9525
 0 0 -0
 0 0 -0
 0 0 -0
 0 0 0
 0 0 0
 0 0 0
 1646.034783 6674.339583 477414.5107
 638.4970806 6720.807428 477416.2695
 -638.497084 6720.807457 477416.2695
 -1646.034787 6674.339565 477414.5107
 0 0 -0
 0 0 -0
 0 0 -0
 0 0 0
 4951.285 4951.284945 477412.6526
 4009.357932 5182.156187 477419.0419
 2352.44353 5746.76149 477423.6191
 801.1341052 5939.942364 477426.3782
 -801.1341088 5939.942274 477426.3782
 -2352.443533 5746.761561 477423.6191
 -4009.357936 5182.156152 477419.0419
 -4951.285003 4951.284957 477412.6526
 0 0 -0
 0 0 0
 5182.156184 4009.357933 477419.0419
 4215.653131 4215.652988 477426.7775
 2663.722735 4498.019073 477435.3817
 910.5444013 4643.417439 477440.5522
 -910.5444045 4643.41758 477440.5522
 -2663.72274 4498.018954 477435.3817
 -4215.653133 4215.653067 477426.7775
 -5182.156188 4009.357901 477419.0419
 0 0 -0
 6674.339602 1646.034762 477414.5107
 5746.761619 2352.443408 477423.6191
 4498.018963 2663.722839 477435.3817
 2856.037878 2856.03764 477446.9158
 978.3198277 2950.244904 477453.8828
 -978.3198317 2950.244735 477453.8828
 -2856.03788 2856.037787 477446.9158
 -4498.018968 2663.722731 477435.3817
 -5746.761621 2352.443468 477423.6191
 -6674.339606 1646.034748 477414.5107
 6720.807505 638.4970088 477416.2695
 5939.942295 801.1341621 477426.3782
 4643.417659 910.5441968 477440.5522
 2950.24472 978.3200016 477453.8828
 1011.115322 1011.115036 477461.8588
 -1011.115325 1011.115207 477461.8588
 -2950.244725 978.3198506 477453.8828
 -4643.41766 910.5443114 477440.5522
 -5939.9423 801.1340932 477426.3782
 -6720.807508 638.4970304 477416.2695
 6720.807463 -638.4970953 477416.2695
 5939.942427 -801.1342446 477426.3782
 4643.417442 -910.5442893 477440.5522
 2950.245003 -978.3200792 477453.8828
 1011.115004 -1011.115133 477461.8588
 -1011.115008 -1011.115283 477461.8588
 -2950.245004 -978.319946 477453.8828
 -4643.417449 -910.5443914 477440.5522
 -5939.942428 -801.1341825 477426.3782
 -6720.807467 -638.4971152 477416.2695
 6674.339629 -1646.034846 477414.5107
 5746.761514 -2352.443502 477423.6191
 4498.019148 -2663.722909 477435.3817
 2856.03763 -2856.037749 477446.9158
 978.3201094 -2950.244963 477453.8828
 -978.3201121 -2950.244849 477453.8828
 -2856.037636 -2856.037851 477446.9158
 -4498.019149 -2663.722833 477435.3817
 -5746.76152 -2352.443546 477423.6191
 -6674.339632 -1646.034835 477414.5107
 0 0 0
 5182.156238 -4009.358013 477419.0419
 4215.653006 -4215.653091 477426.7775
 2663.722919 -4498.019133 477435.3817
 910.544187 -4643.417558 477440.5522
 -910.5441911 -4643.417634 477440.5522
 -2663.722921 -4498.019067 477435.3817
 -4215.653011 -4215.653137 477426.7775
 -5182.15624 -4009.357994 477419.0419
 0 0 -0
 0 0 0
 4951.284984 -4951.285034 477412.6526
 4009.357985 -5182.156264 477419.0419
 2352.443427 -5746.761595 477423.6191
 801.1342348 -5939.942426 477426.3782
 -801.1342379 -5939.942385 477426.3782
 -2352.443431 -5746.761628 477423.6191
 -4009.357988 -5182.156247 477419.0419
 -4951.284988 -4951.28504 477412.6526
 0 0 -0
 0 0 0
 0 0 0
 0 0 0
 1646.034809 -6674.339664 477414.5107
 638.4970399 -6720.807523 477416.2695
 -638.4970435 -6720.807535 477416.2695
 -1646.034812 -6674.339657 477414.5107
 0 0 -0
 0 0 -0
 0 0 -0
 0 0 0
 0 0 0
 0 0 0
 1151.817997 4678.770496 477439.6859
 446.7104233 4709.989986 477440.5594
 -446.7104261 4709.989953 477440.5594
 -1151.818 4678.770515 477439.6859
 0 0 -0
 0 0 -0
 0 0 -0
 0 0 0
 3471.67702 3471.676995 477438.7565
 2808.904686 3630.176696 477441.937
 1646.415953 4024.320819 477444.2014
 560.4016328 4158.382582 477445.5624
 -560.4016354 4158.382681 477445.5624
 -1646.415956 4024.320741 477444.2014
 -2808.904688 3630.176734 477441.937
 -3471.677023 3471.676982 477438.7565
 0 0 -0
 0 0 0
 3630.176774 2808.904609 477441.937
 2950.871251 2950.871303 477445.7624
 1863.131578 3146.793395 477449.995
 636.6176092 3247.607088 477452.5307
 -636.6176122 3247.606932 477452.5307
 -1863.13158 3146.793527 477449.995
 -2950.871255 2950.871214 477445.7624
 -3630.176776 2808.904645 477441.937
 0 0 -0
 4678.770555 1151.81794 477439.6859
 4024.320781 1646.415986 477444.2014
 3146.79357 1863.131409 477449.995
 1996.750641 1996.750777 477455.6495
 683.7629076 2062.182158 477459.0571
 -683.7629099 2062.182349 477459.0571
 -1996.750645 1996.750611 477455.6495
 -3146.793571 1863.131531 477449.995
 -4024.320784 1646.415918 477444.2014
 -4678.770558 1151.817957 477439.6859
 4709.989994 446.7104114 477440.5594
 4158.382721 560.4015054 477445.5624
 3247.606968 636.6177155 477452.5307
 2062.1824 683.7626747 477459.0571
 706.5743023 706.5744814 477462.9544
 -706.5743057 706.5742828 477462.9544
 -2062.182401 683.7628501 477459.0571
 -3247.606973 636.6175822 477452.5307
 -4158.382722 560.4015856 477445.5624
 -4709.989997 446.7103862 477440.5594
 4709.990026 -446.7104926 477440.5594
 4158.382622 -560.4015907 477445.5624
 3247.607132 -636.6177924 477452.5307
 2062.182186 -683.7627654 477459.0571
 706.5745428 -706.574555 477462.9544
 -706.5745448 -706.574375 477462.9544
 -2062.182191 -683.762925 477459.0571
 -3247.607132 -636.6176703 477452.5307
 -4158.382626 -560.4016649 477445.5624
 -4709.990028 -446.710469 477440.5594
 4678.770537 -1151.818024 477439.6859
 4024.32086 -1646.416061 477444.2014
 3146.793431 -1863.131505 477449.995
 1996.750829 -1996.75084 477455.6495
 683.7626951 -2062.182264 477459.0571
 -683.7626986 -2062.182408 477459.0571
 -1996.750829 -1996.750714 477455.6495
 -3146.793436 -1863.1316 477449.995
 -4024.320862 -1646.416007 477444.2014
 -4678.77054 -1151.818037 477439.6859
 0 0 0
 3630.176735 -2808.904697 477441.937
 2950.871347 -2950.87137 477445.7624
 1863.13144 -3146.793501 477449.995
 636.6177712 -3247.607142 477452.5307
 -636.6177733 -3247.607043 477452.5307
 -1863.131444 -3146.793586 477449.995
 -2950.871348 -2950.871311 477445.7624
 -3630.176739 -2808.904723 477441.937
 0 0 -0
 0 0 0
 3471.677036 -3471.677075 477438.7565
 2808.904648 -3630.176786 477441.937
 1646.416032 -4024.320885 477444.2014
 560.4015353 -4158.382687 477445.5624
 -560.4015384 -4158.382742 477445.5624
 -1646.416034 -4024.320841 477444.2014
 -2808.904651 -3630.176809 477441.937
 -3471.677038 -3471.677066 477438.7565
 0 0 -0
 0 0 0
 0 0 0
 0 0 0
 1151.817979 -4678.770584 477439.6859
 446.7104544 -4709.990061 477440.5594
 -446.7104571 -4709.990044 477440.5594
 -1151.817982 -4678.770594 477439.6859
 0 0 -0
 0 0 -0
 0 0 -0
 0 0 0
 0 0 0
 0 0 0
 756.6461941 3077.021503 477453.4854
 293.4044694 3096.843987 477453.8666
 -293.4044713 3096.844021 477453.8666
 -756.6461961 3077.021482 477453.4854
 0 0 -0
 0 0 -0
 0 0 -0
 0 0 0
 2283.587496 2283.587446 477453.0781
 1846.367832 2386.042134 477454.468
 1081.398368 2644.263332 477455.4532
 367.927803 2731.610645 477456.0443
 -367.9278052 2731.610538 477456.0443
 -1081.398369 2644.263417 477455.4532
 -1846.367834 2386.042093 477454.468
 -2283.587497 2283.587461 477453.0781
 0 0 -0
 0 0 0
 2386.04214 1846.367825 477454.468
 1938.199889 1938.199773 477456.1321
 1222.88602 2065.736778 477457.9652
 417.6870108 2131.265414 477459.0606
 -417.6870125 2131.265585 477459.0606
 -1222.886023 2065.736633 477457.9652
 -1938.19989 1938.199871 477456.1321
 -2386.042142 1846.367786 477454.468
 0 0 -0
 3077.021526 756.6461707 477453.4854
 2644.263437 1081.398268 477455.4532
 2065.736702 1222.886091 477457.9652
 1309.857634 1309.857445 477460.4066
 448.3809271 1352.385194 477461.8742
 -448.3809296 1352.38498 477461.8742
 -1309.857635 1309.857631 477460.4066
 -2065.736706 1222.885954 477457.9652
 -2644.263438 1081.398345 477455.4532
 -3077.021528 756.6461523 477453.4854
 3096.844053 293.4044074 477453.8666
 2731.6106 367.9278392 477456.0443
 2131.265589 417.6868475 477459.0606
 1352.38506 448.3810527 477461.8742
 463.2136808 463.2134548 477463.5506
 -463.2136821 463.213682 477463.5506
 -1352.385064 448.380852 477461.8742
 -2131.265589 417.6870001 477459.0606
 -2731.610604 367.9277472 477456.0443
 -3096.844054 293.4044364 477453.8666
 3096.844033 -293.4044872 477453.8666
 2731.610662 -367.9279161 477456.0443
 2131.265488 -417.6869315 477459.0606
 1352.385192 -448.3811262 477461.8742
 463.2135331 -463.2135421 477463.5506
 -463.2135358 -463.2137545 477463.5506
 -1352.385192 -448.3809381 477461.8742
 -2131.265492 -417.6870754 477459.0606
 -2731.610662 -367.9278289 477456.0443
 -3096.844036 -293.4045149 477453.8666
 3077.021538 -756.6462484 477453.4854
 2644.263389 -1081.398353 477455.4532
 2065.736789 -1222.88616 477457.9652
 1309.857519 -1309.857541 477460.4066
 448.3810577 -1352.385255 477461.8742
 -448.381059 -1352.385079 477461.8742
 -1309.857523 -1309.857695 477460.4066
 -2065.736789 -1222.886045 477457.9652
 -2644.263392 -1081.398419 477455.4532
 -3077.02154 -756.6462323 477453.4854
 0 0 0
 2386.042165 -1846.367901 477454.468
 1938.199831 -1938.199864 477456.1321
 1222.886106 -2065.736839 477457.9652
 417.6869116 -2131.265517 477459.0606
 -417.6869141 -2131.265642 477459.0606
 -1222.886106 -2065.736732 477457.9652
 -1938.199834 -1938.199939 477456.1321
 -2386.042167 -1846.36787 477454.468
 0 0 -0
 0 0 0
 2283.587489 -2283.587528 477453.0781
 1846.367857 -2386.042208 477454.468
 1081.39832 -2644.263425 477455.4532
 367.9278631 -2731.610708 477456.0443
 -367.9278648 -2731.610636 477456.0443
 -1081.398323 -2644.263483 477455.4532
 -1846.367859 -2386.042179 477454.468
 -2283.587491 -2283.587539 477453.0781
 0 0 -0
 0 0 0
 0 0 0
 0 0 0
 756.6462064 -3077.02158 477453.4854
 293.4044507 -3096.844073 477453.8666
 -293.4044527 -3096.844095 477453.8666
 -756.6462082 -3077.021566 477453.4854
 0 0 -0
 0 0 -0
 0 0 -0
 0 0 0
 0 0 0
 0 0 0
 428.4071247 1743.320127 477460.6252
 166.1036773 1754.274827 477460.7484
 -166.1036786 1754.274791 477460.7484
 -428.4071258 1743.32015 477460.6252
 0 0 -0
 0 0 -0
 0 0 -0
 0 0 0
 1293.958895 1293.958867 477460.4933
 1045.711416 1351.302227 477460.9427
 612.146935 1497.186087 477461.2602
 208.2126117 1546.330553 477461.4506
 -208.2126127 1546.330666 477461.4506
 -612.1469367 1497.185997 477461.2602
 -1045.711417 1351.302272 477460.9427
 -1293.958896 1293.958851 477460.4933
 0 0 -0
 0 0 0
 1351.302291 1045.711353 477460.9427
 1097.110387 1097.110411 477461.4791