# OOMMF OVF 2.0
#
# Segment count: 1
#
# Begin: Segment
# Begin: Header
#
# Title: Oxs_MinDriver::Magnetization
# Desc: Oxs vector field output
# Desc:  MIF source file: F:/Bogdan/UNIC/2022/Master_degree/Samples/Cylinder0_5000 1.mif
# Desc:  Iteration: 858, State id: 10863
# Desc:  Stage: 2, Stage iteration: 45
# Desc:  Stage simulation time: 0 s
# Desc:  Total simulation time: -2 s
# meshunit: m
# meshtype: rectangular
# xbase: -8.9999999999999995e-09
# ybase: -8.9999999999999995e-09
# zbase: -2.0999999999999999e-08
# xnodes: 10
# ynodes: 10
# znodes: 22
# xstepsize: 2.0000000000000001e-09
# ystepsize: 2.0000000000000001e-09
# zstepsize: 2.0000000000000001e-09
# xmin: -1e-08
# ymin: -1e-08
# zmin: -2.1999999999999998e-08
# xmax: 1e-08
# ymax: 1e-08
# zmax: 2.2000000000000005e-08
# valuedim: 3
# valuelabels: Magnetization_x Magnetization_y Magnetization_z
# valueunits: A/m A/m A/m
#
# End: Header
#
# Begin: Data Text
 0 0 0
 0 0 0
 0 0 0
 9077.990313 34558.16438 476125.188
 3428.576678 34805.7208 476181.3499
 -3428.576613 34805.72078 476181.3499
 -9077.990247 34558.16439 476125.188
 0 0 -0
 0 0 -0
 0 0 -0
 0 0 0
 25645.04644 25645.04266 476084.5877
 20434.42659 26762.48141 476275.2094
 12082.78448 29131.35645 476421.2859
 4086.997546 29797.08856 476515.7933
 -4086.997479 29797.08861 476515.7933
 -12082.78442 29131.35641 476421.2859
 -20434.42652 26762.48143 476275.2094
 -25645.04638 25645.04265 476084.5877
 0 0 -0
 0 0 0
 26762.48525 20434.42272 476275.2094
 21142.48366 21142.47983 476526.8746
 13135.48649 22107.82971 476770.9871
 4447.55123 22545.58123 476910.6702
 -4447.551162 22545.58114 476910.6702
 -13135.48642 22107.82977 476770.9871
 -21142.4836 21142.47978 476526.8746
 -26762.48518 20434.42273 476275.2094
 0 0 -0
 34558.1682 9077.986451 476125.1878
 29131.36027 12082.78062 476421.2858
 22107.83368 13135.48249 476770.987
 13721.30378 13721.29991 477069.5159
 4645.207505 13985.26742 477236.5301
 -4645.207435 13985.26752 477236.5301
 -13721.30371 13721.29982 477069.516
 -22107.83361 13135.48255 476770.987
 -29131.36021 12082.78058 476421.2858
 -34558.16813 9077.986452 476125.1878
 34805.7246 3428.572798 476181.3496
 29797.09248 4086.993573 476515.7931
 22545.58506 4447.547335 476910.6701
 13985.27151 4645.2034 477236.53
 4734.037488 4734.03358 477417.0599
 -4734.037418 4734.033486 477417.0599
 -13985.27144 4645.20348 477236.53
 -22545.585 4447.547269 476910.6701
 -29797.0924 4086.993604 476515.7931
 -34805.72453 3428.57278 476181.3496
 34805.72462 -3428.580545 476181.3496
 29797.09242 -4087.001388 476515.793
 22545.58516 -4447.555234 476910.67
 13985.27139 -4645.211368 477236.5299
 4734.037622 -4734.041573 477417.0598
 -4734.037546 -4734.041498 477417.0598
 -13985.27132 -4645.211439 477236.5299
 -22545.58508 -4447.555187 476910.67
 -29797.09235 -4087.001425 476515.793
 -34805.72455 -3428.580541 476181.3496
 34558.1682 -9077.994153 476125.1877
 29131.36032 -12082.78842 476421.2856
 22107.8336 -13135.49036 476770.9868
 13721.30389 -13721.30783 477069.5157
 4645.207386 -13985.27541 477236.5298
 -4645.207315 -13985.27547 477236.5298
 -13721.30381 -13721.30779 477069.5157
 -22107.83353 -13135.4904 476770.9868
 -29131.36025 -12082.7884 476421.2856
 -34558.16813 -9077.994165 476125.1877
 0 0 0
 26762.48526 -20434.43049 476275.209
 21142.48373 -21142.48764 476526.8743
 13135.48641 -22107.83759 476770.9868
 4447.551325 -22545.58911 476910.6698
 -4447.551248 -22545.58908 476910.6698
 -13135.48634 -22107.83762 476770.9868
 -21142.48365 -21142.48763 476526.8743
 -26762.48518 -20434.4305 476275.209
 0 0 -0
 0 0 0
 25645.04652 -25645.05037 476084.5873
 20434.42659 -26762.48915 476275.209
 12082.78453 -29131.36424 476421.2855
 4086.997498 -29797.0964 476515.7928
 -4086.997424 -29797.09641 476515.7928
 -12082.78446 -29131.36423 476421.2855
 -20434.42652 -26762.48916 476275.209
 -25645.04644 -25645.05037 476084.5873
 0 0 -0
 0 0 0
 0 0 0
 0 0 0
 9077.990324 -34558.17213 476125.1875
 3428.576705 -34805.72854 476181.3493
 -3428.57663 -34805.72854 476181.3493
 -9077.990251 -34558.17213 476125.1875
 0 0 -0
 0 0 -0
 0 0 -0
 0 0 0
 0 0 0
 0 0 0
 7661.90818 30046.65851 476456.0471
 2953.497987 30273.55213 476494.1345
 -2953.497924 30273.55218 476494.1345
 -7661.908118 30046.65848 476456.0471
 0 0 -0
 0 0 -0
 0 0 -0
 0 0 0
 22260.74728 22260.74357 476425.0095
 17952.95271 23307.82362 476556.7208
 10589.93534 25672.40946 476655.6954
 3602.163675 26409.22082 476719.4655
 -3602.163612 26409.22066 476719.4655
 -10589.93527 25672.40958 476655.6954
 -17952.95265 23307.82356 476556.7208
 -22260.74721 22260.74358 476425.0095
 0 0 -0
 0 0 0
 23307.8273 17952.94899 476556.7208
 18737.24298 18737.23908 476728.1226
 11732.48291 19767.40336 476910.3374
 3988.322111 20255.43359 477017.486
 -3988.322045 20255.43383 477017.486
 -11732.48285 19767.40317 476910.3374
 -18737.2429 18737.2392 476728.1226
 -23307.82724 17952.94894 476556.7208
 0 0 -0
 30046.66221 7661.904438 476456.0469
 25672.41334 10589.93145 476655.6953
 19767.40698 11732.47926 476910.3373
 12372.1278 12372.12368 477143.3037
 4204.194834 12663.508 477277.5205
 -4204.194768 12663.50773 477277.5205
 -12372.12772 12372.12391 477143.3037
 -19767.40693 11732.47908 476910.3373
 -25672.41325 10589.93154 476655.6953
 -30046.66215 7661.90441 476456.0469
 30273.55591 2953.494154 476494.1343
 26409.22443 3602.159956 476719.4653
 20255.43767 3988.318037 477017.4859
 12663.51158 4204.191208 477277.5205
 4301.736958 4301.732724 477425.2417
 -4301.736885 4301.732988 477425.2417
 -12663.51152 4204.190974 477277.5205
 -20255.43758 3988.318205 477017.4859
 -26409.22439 3602.159848 476719.4653
 -30273.55584 2953.49418 476494.1343
 30273.55586 -2953.501712 476494.1342
 26409.22461 -3602.167587 476719.4652
 20255.43739 -3988.325738 477017.4859
 12663.51192 -4204.198961 477277.5204
 4301.736597 -4301.740544 477425.2417
 -4301.736535 -4301.740766 477425.2417
 -12663.51183 -4204.198769 477277.5204
 -20255.43734 -3988.325891 477017.4859
 -26409.22453 -3602.167504 476719.4652
 -30273.5558 -2953.501746 476494.1342
 30046.66227 -7661.911967 476456.0468
 25672.41321 -10589.93905 476655.6951
 19767.40722 -11732.48693 476910.3371
 12372.1275 -12372.13145 477143.3035
 4204.195162 -12663.51572 477277.5203
 -4204.195082 -12663.51556 477277.5203
 -12372.12745 -12372.13159 477143.3035
 -19767.40713 -11732.48683 476910.3371
 -25672.41315 -10589.93911 476655.6951
 -30046.6622 -7661.911958 476456.0468
 0 0 0
 23307.82739 -17952.95659 476556.7205
 18737.24285 -18737.24672 476728.1223
 11732.48314 -19767.41101 476910.3371
 3988.321865 -20255.44136 477017.4857
 -3988.3218 -20255.44146 477017.4857
 -11732.48305 -19767.41093 476910.3371
 -18737.24279 -18737.24678 476728.1223
 -23307.82732 -17952.95657 476556.7205
 0 0 -0
 0 0 0
 22260.74734 -22260.7511 476425.0092
 17952.9528 -23307.83117 476556.7204
 10589.93524 -25672.41711 476655.695
 3602.163827 -26409.22841 476719.4651
 -3602.163751 -26409.22836 476719.4651
 -10589.93517 -25672.41715 476655.695
 -17952.95273 -23307.83115 476556.7204
 -22260.74727 -22260.75112 476425.0092
 0 0 -0
 0 0 0
 0 0 0
 0 0 0
 7661.908234 -30046.66609 476456.0466
 2953.497956 -30273.55972 476494.134
 -2953.497885 -30273.55974 476494.134
 -7661.908162 -30046.66609 476456.0466
 0 0 -0
 0 0 -0
 0 0 -0
 0 0 0
 0 0 0
 0 0 0
 6151.850831 24559.61069 476792.252
 2384.790908 24750.33397 476816.1124
 -2384.790851 24750.33389 476816.1124
 -6151.850771 24559.61073 476792.252
 0 0 -0
 0 0 -0
 0 0 -0
 0 0 0
 18189.05806 18189.05452 476770.5819
 14738.5376 19077.73735 476854.9955
 8680.116641 21123.79773 476917.5107
 2957.970142 21803.37405 476956.7429
 -2957.970079 21803.37426 476956.7429
 -8680.116592 21123.79756 476917.5107
 -14738.53753 19077.73742 476854.9955
 -18189.058 18189.05448 476770.5819
 0 0 -0
 0 0 0
 19077.74101 14738.53392 476854.9955
 15470.09987 15470.0964 476962.4969
 9743.682646 16433.73434 477081.6118
 3323.087203 16909.59173 477152.9043
 -3323.087147 16909.5914 477152.9043
 -9743.68257 16433.73461 477081.6118
 -15470.09983 15470.09621 476962.4969
 -19077.74093 14738.53399 476854.9955
 0 0 -0
 24559.61433 6151.847183 476792.2518
 21123.8012 8680.113106 476917.5106
 16433.73827 9743.678725 477081.6117
 10365.39526 10365.3919 477238.9218
 3536.069248 10656.75492 477331.9611
 -3536.06918 10656.75531 477331.9611
 -10365.39522 10365.39156 477238.9219
 -16433.73818 9743.678965 477081.6117
 -21123.80117 8680.112967 476917.5106
 -24559.61426 6151.847208 476792.2518
 24750.3375 2384.787292 476816.1122
 21803.3779 2957.966303 476956.7427
 16909.59506 3323.08376 477152.9042
 10656.75906 3536.065124 477331.961
 3634.583893 3634.580571 477436.3318
 -3634.583838 3634.58018 477436.3318
 -10656.75898 3536.065462 477331.961
 -16909.59504 3323.083499 477152.9042
 -21803.37781 2957.966449 476956.7427
 -24750.33745 2384.787238 476816.1122
 24750.33759 -2384.794583 476816.1122
 21803.37767 -2957.973638 476956.7427
 16909.59545 -3323.091158 477152.9042
 10656.7586 -3536.072593 477331.961
 3634.58439 -3634.588034 477436.3317
 -3634.584312 -3634.587695 477436.3317
 -10656.75856 -3536.072894 477331.961
 -16909.59535 -3323.090936 477152.9042
 -21803.37763 -2957.973779 476956.7427
 -24750.33752 -2384.794546 476816.1122
 24559.61432 -6151.854435 476792.2517
 21123.8014 -8680.12044 476917.5105
 16433.73796 -9743.686117 477081.6116
 10365.39568 -10365.3993 477238.9217
 3536.068804 -10656.76244 477331.9609
 -3536.068751 -10656.7627 477331.9609
 -10365.39558 -10365.39907 477238.9217
 -16433.73792 -9743.68629 477081.6116
 -21123.80133 -8680.12035 476917.5105
 -24559.61426 -6151.854464 476792.2518
 0 0 0
 19077.74097 -14738.54124 476854.9953
 15470.10011 -15470.10374 476962.4966
 9743.68236 -16433.74177 477081.6116
 3323.087551 -16909.59907 477152.9041
 -3323.087475 -16909.59891 477152.9041
 -9743.682311 -16433.74191 477081.6115
 -15470.10003 -15470.10364 476962.4966
 -19077.7409 -14738.54129 476854.9953
 0 0 -0
 0 0 0
 18189.05818 -18189.0618 476770.5816
 14738.53757 -19077.74465 476854.9952
 8680.116823 -21123.80505 476917.5104
 2957.969949 -21803.38147 476956.7426
 -2957.969886 -21803.38156 476956.7425
 -8680.116748 -21123.80498 476917.5104
 -14738.5375 -19077.74469 476854.9952
 -18189.05812 -18189.06179 476770.5816
 0 0 -0
 0 0 0
 0 0 0
 0 0 0
 6151.850828 -24559.61804 476792.2516
 2384.790986 -24750.34127 476816.112
 -2384.790918 -24750.34125 476816.112
 -6151.850763 -24559.61806 476792.2516
 0 0 -0
 0 0 -0
 0 0 -0
 0 0 0
 0 0 0
 0 0 0
 4795.278176 19344.63823 477047.8609
 1861.212191 19493.66502 477062.2645
 -1861.212136 19493.66509 477062.2645
 -4795.278127 19344.63818 477047.8609
 0 0 -0
 0 0 -0
 0 0 -0
 0 0 0
 14327.73633 14327.7329 477033.8597
 11623.83186 15031.82526 477085.7387
 6835.692873 16677.19816 477123.6901
 2329.890068 17238.81366 477147.0069
 -2329.890021 17238.81343 477147.0069
 -6835.692805 16677.19834 477123.6901
 -11623.83182 15031.82517 477085.7387
 -14327.73627 14327.73292 477033.8597
 0 0 -0
 0 0 0
 15031.82862 11623.82846 477085.7387
 12231.22527 12231.22161 477150.5692
 7725.89215 13040.81511 477223.3429
 2639.59172 13450.66952 477267.2033
 -2639.591656 13450.66988 477267.2033
 -7725.892121 13040.8148 477223.3429
 -12231.22519 12231.22181 477150.5691
 -15031.82858 11623.82837 477085.7387
 0 0 -0
 19344.64164 4795.274738 477047.8608
 16677.20179 6835.68925 477123.69
 13040.81832 7725.888888 477223.3429
 8263.50498 8263.501073 477320.9615
 2826.363141 8521.410001 477379.5854
 -2826.363097 8521.409567 477379.5854
 -8263.504891 8263.501448 477320.9615
 -13040.8183 7725.888607 477223.3429
 -16677.20171 6835.689398 477123.69
 -19344.64159 4795.274695 477047.8608
 19493.66855 1861.208645 477062.2644
 17238.81691 2329.886698 477147.0068
 13450.6734 2639.587894 477267.2032
 8521.413099 2826.359964 477379.5853
 2914.704709 2914.700655 477446.2067
 -2914.704636 2914.701105 477446.2067
 -8521.413081 2826.359565 477379.5853
 -13450.6733 2639.588189 477267.2032
 -17238.81689 2329.886513 477147.0068
 -19493.66848 1861.208694 477062.2644
 19493.66848 -1861.215625 477062.2643
 17238.81717 -2329.893713 477147.0068
 13450.673 -2639.594976 477267.2032
 8521.413598 -2826.367057 477379.5853
 2914.704194 -2914.707809 477446.2067
 -2914.704151 -2914.708226 477446.2067
 -8521.413496 -2826.366694 477379.5853
 -13450.673 -2639.595256 477267.2032
 -17238.81707 -2329.893553 477147.0068
 -19493.66844 -1861.215684 477062.2643
 19344.64172 -4795.28169 477047.8607
 16677.20162 -6835.69627 477123.6899
 13040.81867 -7725.895911 477223.3428
 8263.504559 -8263.508216 477320.9614
 2826.363608 -8521.417066 477379.5853
 -2826.363532 -8521.416728 477379.5853
 -8263.504535 -8263.508513 477320.9614
 -13040.81857 -7725.895698 477223.3428
 -16677.20159 -6835.696398 477123.6899
 -19344.64166 -4795.281667 477047.8607
 0 0 0
 15031.82877 -11623.83548 477085.7385
 12231.22509 -12231.22868 477150.569
 7725.892483 -13040.82212 477223.3427
 2639.591376 -13450.67667 477267.2031
 -2639.591325 -13450.67691 477267.2031
 -7725.892398 -13040.82192 477223.3427
 -12231.22505 -12231.22882 477150.569
 -15031.8287 -11623.83542 477085.7385
 0 0 -0
 0 0 0
 14327.73641 -14327.73989 477033.8595
 11623.832 -15031.83223 477085.7385
 6835.692729 -16677.20524 477123.6899
 2329.890289 -17238.82067 477147.0067
 -2329.890222 -17238.82053 477147.0067
 -6835.692677 -16677.20534 477123.6899
 -11623.83194 -15031.83218 477085.7385
 -14327.73636 -14327.73991 477033.8595
 0 0 -0
 0 0 0
 0 0 0
 0 0 0
 4795.278258 -19344.64526 477047.8606
 1861.212145 -19493.67207 477062.2642
 -1861.212084 -19493.67211 477062.2642
 -4795.278194 -19344.64524 477047.8606
 0 0 -0
 0 0 -0
 0 0 -0
 0 0 0
 0 0 0
 0 0 0
 3654.104855 14837.15226 477219.423
 1418.557884 14947.91769 477227.8478
 -1418.55784 14947.91762 477227.8478
 -3654.104806 14837.15229 477219.423
 0 0 -0
 0 0 -0
 0 0 -0
 0 0 0
 10991.14579 10991.14256 477210.9186
 8915.335731 11525.00226 477241.6185
 5235.135496 12794.28516 477263.8379
 1783.684551 13231.10185 477277.3069
 -1783.684496 13231.10205 477277.3069
 -5235.135466 12794.285 477263.8379
 -8915.335671 11525.00233 477241.6185
 -10991.14575 10991.14253 477210.9186
 0 0 -0
 0 0 0
 11525.0056 8915.33237 477241.6185
 9386.693304 9386.690138 477279.4269
 5934.433658 10022.68132 477321.9036
 2028.858254 10348.67925 477347.5253
 -2028.85822 10348.67893 477347.5253
 -5934.433578 10022.68159 477321.9036
 -9386.693289 9386.68995 477279.4269
 -11525.00554 8915.332441 477241.6185
 0 0 -0
 14837.15559 3654.101522 477219.423
 12794.28833 5235.132268 477263.8378
 10022.6849 5934.430107 477321.9036
 6364.05867 6364.055609 477379.1668
 2179.494713 6573.014517 477413.7792
 -2179.494645 6573.014917 477413.7792
 -6364.058667 6364.055256 477379.1668
 -10022.6848 5934.430362 477321.9036
 -12794.28831 5235.132115 477263.8378
 -14837.15554 3654.10155 477219.423
 14947.92093 1418.55457 477227.8477
 13231.10537 1783.68108 477277.3068
 10348.68228 2028.855081 477347.5252
 6573.018287 2179.491002 477413.7792
 2251.766154 2251.763153 477453.3804
 -2251.766124 2251.762712 477453.3804
 -6573.018182 2179.491388 477413.7792
 -10348.6823 2028.854782 477347.5252
 -13231.10527 1783.681252 477277.3068
 -14947.92089 1418.554508 477227.8477
 14947.92101 -1418.561238 477227.8477
 13231.10517 -1783.687793 477277.3068
 10348.68263 -2028.8618 477347.5252
 6573.017871 -2179.497789 477413.7791
 2251.766587 -2251.769936 477453.3803
 -2251.766513 -2251.769502 477453.3803
 -6573.017874 -2179.498173 477413.7791
 -10348.68252 -2028.861517 477347.5252
 -13231.10517 -1783.687971 477277.3068
 -14947.92094 -1418.56119 477227.8477
 14837.1556 -3654.108175 477219.4229
 12794.28852 -5235.138936 477263.8377
 10022.68464 -5934.436883 477321.9035
 6364.059043 -6364.062325 477379.1667
 2179.494343 -6573.021317 477413.7791
 -2179.494306 -6573.0217 477413.7791
 -6364.058944 -6364.061998 477379.1667
 -10022.68464 -5934.437128 477321.9035
 -12794.28843 -5235.138807 477263.8377
 -14837.15556 -3654.108214 477219.4229
 0 0 0
 11525.00559 -8915.3391 477241.6183
 9386.693534 -9386.696812 477279.4268
 5934.433427 -10022.68811 477321.9035
 2028.858543 -10348.68598 477347.5251
 -2028.858477 -10348.6857 477347.5251
 -5934.433403 -10022.68835 477321.9035
 -9386.693445 -9386.696655 477279.4268
 -11525.00556 -8915.33917 477241.6183
 0 0 -0
 0 0 0
 10991.14594 -10991.14924 477210.9184
 8915.335729 -11525.00897 477241.6183
 5235.135667 -12794.29186 477263.8377
 1783.684402 -13231.10861 477277.3067
 -1783.684352 -13231.10878 477277.3067
 -5235.135597 -12794.29173 477263.8377
 -8915.335686 -11525.00904 477241.6183
 -10991.14588 -10991.14922 477210.9184
 0 0 -0
 0 0 0
 0 0 0
 0 0 0
 3654.104869 -14837.15901 477219.4228
 1418.557956 -14947.92441 477227.8476
 -1418.557898 -14947.92436 477227.8476
 -3654.104816 -14837.15904 477219.4228
 0 0 -0
 0 0 -0
 0 0 -0
 0 0 0
 0 0 0
 0 0 0
 2727.545445 11122.52104 477326.6401
 1058.789393 11202.13979 477331.3968
 -1058.789352 11202.13984 477331.3968
 -2727.54541 11122.52101 477326.6401
 0 0 -0
 0 0 -0
 0 0 -0
 0 0 0
 8240.968206 8240.965083 477321.7408
 6679.991832 8633.646826 477339.1972
 3917.039377 9584.673798 477351.7174
 1333.845825 9911.708473 477359.2465
 -1333.845794 9911.708332 477359.2465
 -3917.039319 9584.673908 477351.7174
 -6679.991805 8633.646765 477339.1972
 -8240.968161 8240.965098 477321.7408
 0 0 -0
 0 0 0
 8633.649922 6679.988704 477339.1972
 7030.658435 7030.655191 477360.4624
 4444.197635 7508.993361 477384.2639
 1519.387589 7755.416035 477398.5927
 -1519.387532 7755.416263 477398.5927
 -4444.197634 7508.99316 477384.2639
 -7030.658358 7030.655324 477360.4624
 -8633.649899 6679.98864 477339.1972
 0 0 -0
 11122.52417 2727.542291 477326.64
 9584.677052 3917.036151 477351.7174
 7508.996397 4444.194535 477384.2639
 4770.183871 4770.180487 477416.3403
 1634.276553 4929.736586 477435.7529
 -1634.276536 4929.73628 477435.7529
 -4770.18377 4770.180754 477416.3403
 -7508.996417 4444.194327 477384.2639
 -9584.67697 3917.036262 477351.7174
 -11122.52414 2727.542255 477326.64
 11202.143 1058.786189 477331.3967
 9911.71152 1333.842649 477359.2464
 7755.41944 1519.384284 477398.5926
 4929.739548 1634.273486 477435.7529
 1689.783849 1689.780333 477458.0197
 -1689.783778 1689.780697 477458.0197
 -4929.739572 1634.27316 477435.7529
 -7755.419319 1519.384526 477398.5926
 -9911.711533 1333.842494 477359.2464
 -11202.14294 1058.78623 477331.3967
 11202.14297 -1058.792575 477331.3967
 9911.71167 -1333.84904 477359.2464
 7755.419225 -1519.39073 477398.5926
 4929.739823 -1634.279934 477435.7528
 1689.783589 -1689.786792 477458.0197
 -1689.783568 -1689.787188 477458.0197
 -4929.739714 -1634.279592 477435.7528
 -7755.419258 -1519.390992 477398.5926
 -9911.711564 -1333.848893 477359.2464
 -11202.14295 -1058.79263 477331.3967
 11122.52424 -2727.548644 477326.64
 9584.676981 -3917.042579 477351.7173
 7508.996606 -4444.20093 477384.2638
 4770.183664 -4770.186948 477416.3403
 1634.276779 -4929.743068 477435.7528
 -1634.276714 -4929.742694 477435.7528
 -4770.183669 -4770.187272 477416.3403
 -7508.996493 -4444.200704 477384.2638
 -9584.676985 -3917.042711 477351.7173
 -11122.52418 -2727.54862 477326.64
 0 0 0
 8633.650047 -6679.995107 477339.1971
 7030.658374 -7030.661643 477360.4623
 4444.197817 -7508.999783 477384.2638
 1519.387448 -7755.422467 477398.5926
 -1519.387414 -7755.422766 477398.5926
 -4444.197733 -7508.999537 477384.2638
 -7030.65837 -7030.66181 477360.4623
 -8633.649976 -6679.995046 477339.1971
 0 0 -0
 0 0 0
 8240.96832 -8240.971491 477321.7407
 6679.991954 -8633.65321 477339.197
 3917.039336 -9584.680243 477351.7173
 1333.845926 -9911.71493 477359.2463
 -1333.84587 -9911.714746 477359.2463
 -3917.039306 -9584.680389 477351.7173
 -6679.991889 -8633.653144 477339.197
 -8240.968281 -8240.971518 477321.7407
 0 0 -0
 0 0 0
 0 0 0
 0 0 0
 2727.545513 -11122.52749 477326.6399
 1058.789389 -11202.14623 477331.3966
 -1058.789342 -11202.14629 477331.3966
 -2727.54546 -11122.52746 477326.6399
 0 0 -0
 0 0 -0
 0 0 -0
 0 0 0
 0 0 0
 0 0 0
 1988.293334 8131.620787 477390.6102
 771.7187484 8187.34008 477393.1747
 -771.7187202 8187.340058 477393.1747
 -1988.2933 8131.620799 477390.6102
 0 0 -0
 0 0 -0
 0 0 -0
 0 0 0
 6026.004672 6026.001687 477387.9406
 4880.636464 6307.224653 477397.3917
 2858.406518 7000.482497 477404.1203
 972.7951949 7237.802793 477408.1474
 -972.7951546 7237.802863 477408.1474
 -2858.406506 7000.482436 477404.1203
 -4880.636418 6307.224679 477397.3917
 -6026.004645 6026.00167 477387.9406
 0 0 -0
 0 0 0
 6307.227661 4880.633444 477397.3917
 5133.096739 5133.093705 477408.8122
 3242.712415 5480.687502 477421.5309
 1108.288181 5659.945904 477429.1654
 -1108.288168 5659.94578 477429.1654
 -3242.712338 5480.687608 477421.5309
 -5133.096748 5133.093622 477408.8122
 -6307.227608 4880.633472 477397.3917
 0 0 -0
 8131.623826 1988.29031 477390.6102
 7000.485508 2858.403444 477404.1202
 5480.690582 3242.709376 477421.5309
 3480.505779 3480.502733 477438.628
 1192.306333 3597.095972 477448.9613
 -1192.30627 3597.096155 477448.9613
 -3480.505814 3480.502565 477438.628
 -5480.690475 3242.709498 477421.5309
 -7000.485521 2858.403364 477404.1202
 -8131.623778 1988.290321 477390.6102
 8187.343101 771.7156667 477393.1746
 7237.805894 972.7921699 477408.1473
 5659.948883 1108.285044 477429.1654
 3597.099154 1192.303234 477448.9612
 1232.988475 1232.98548 477460.816
 -1232.98847 1232.985228 477460.816
 -3597.099039 1192.303452 477448.9612
 -5659.948937 1108.28487 477429.1654
 -7237.805792 972.792266 477408.1473
 -8187.343087 771.7156272 477393.1746
 8187.34314 -771.7217868 477393.1746
 7237.805844 -972.7983206 477408.1473
 5659.948983 -1108.291198 477429.1654
 3597.099068 -1192.309404 477448.9612
 1232.988538 -1232.991688 477460.8159
 -1232.988474 -1232.991386 477460.816
 -3597.099101 -1192.309671 477448.9612
 -5659.948857 -1108.291008 477429.1654
 -7237.805876 -972.7984407 477408.1473
 -8187.343079 -771.7217585 477393.1746
 8131.623861 -1988.296418 477390.6102
 7000.485593 -2858.409567 477404.1202
 5480.690542 -3242.715543 477421.5309
 3480.505865 -3480.508929 477438.6279
 1192.306305 -3597.102099 477448.9612
 -1192.306286 -3597.102413 477448.9612
 -3480.50577 -3480.508666 477438.6279
 -5480.690575 -3242.715735 477421.5309
 -7000.485499 -2858.409472 477404.1202
 -8131.623838 -1988.296447 477390.6102
 0 0 0
 6307.227719 -4880.639613 477397.3916
 5133.096839 -5133.099859 477408.8121
 3242.71241 -5480.693643 477421.5308
 1108.288204 -5659.952146 477429.1654
 -1108.288149 -5659.951883 477429.1654
 -3242.71241 -5480.693863 477421.5308
 -5133.09675 -5133.099723 477408.8121
 -6307.227707 -4880.639673 477397.3916
 0 0 -0
 0 0 0
 6026.004813 -6026.007828 477387.9406
 4880.636531 -6307.230788 477397.3916
 2858.406575 -7000.488691 477404.1202
 972.7952128 -7237.808925 477408.1473
 -972.7951801 -7237.809094 477408.1473
 -2858.406511 -7000.488563 477404.1202
 -4880.636509 -6307.230853 477397.3916
 -6026.004763 -6026.007812 477387.9406
 0 0 -0
 0 0 0
 0 0 0
 0 0 0
 1988.293383 -8131.626976 477390.6101
 771.7187714 -8187.346276 477393.1746
 -771.7187264 -8187.346222 477393.1746
 -1988.293346 -8131.627009 477390.6101
 0 0 -0
 0 0 -0
 0 0 -0
 0 0 0
 0 0 0
 0 0 0
 1399.5363 5735.102593 477427.5036
 543.1242787 5772.864832 477428.7909
 -543.1242544 5772.864834 477428.7909
 -1399.536281 5735.102589 477427.5036
 0 0 -0
 0 0 -0
 0 0 -0
 0 0 0
 4250.701897 4250.69903 477426.156
 3440.171538 4445.308416 477430.912
 2012.749505 4932.531724 477434.2785
 684.6442997 5098.410928 477436.2876
 -684.6442853 5098.410916 477436.2876
 -2012.749463 4932.531732 477434.2785
 -3440.171528 4445.308404 477430.912
 -4250.701867 4250.699028 477426.156
 0 0 -0
 0 0 0
 4445.311332 3440.168591 477430.912
 3615.256562 3615.253706 477436.6253
 2282.180792 3858.15475 477442.9574
 779.6885879 3983.323071 477446.7473
 -779.6885444 3983.323098 477446.7473
 -2282.180813 3858.15472 477442.9574
 -3615.256492 3615.253724 477436.6253
 -4445.31133 3440.168574 477430.912
 0 0 -0
 5735.105523 1399.533358 477427.5036
 4932.534622 2012.746648 477434.2785
 3858.157751 2282.177729 477442.9574
 2448.544614 2448.541764 477451.4432
 838.5287755 2530.066087 477456.5603
 -838.5287788 2530.066021 477456.5603
 -2448.544516 2448.54182 477451.4432
 -3858.157804 2282.177677 477442.9574
 -4932.534542 2012.746671 477434.2785
 -5735.105509 1399.533344 477427.5036
 5772.867763 543.1213664 477428.7908
 5098.413872 684.6412243 477436.2876
 3983.325997 779.6857818 477446.7473
 2530.069091 838.5256627 477456.5602
 867.0099451 867.0070132 477462.4256
 -867.0098843 867.007133 477462.4256
 -2530.069147 838.525553 477456.5602
 -3983.325872 779.6858569 477446.7473
 -5098.413915 684.6411698 477436.2876
 -5772.86771 543.1213742 477428.7908
 5772.867776 -543.1272717 477428.7908
 5098.413893 -684.6471377 477436.2876
 3983.326023 -779.691711 477446.7473
 2530.069038 -838.5316247 477456.5602
 867.0100663 -867.0129367 477462.4256
 -867.0100653 -867.013116 477462.4256
 -2530.068932 -838.5314751 477456.5602
 -3983.326087 -779.6918262 477446.7473
 -5098.413791 -684.6470818 477436.2876
 -5772.867772 -543.1272976 477428.7908
 5735.105575 -1399.539241 477427.5036
 4932.534656 -2012.75257 477434.2784
 3858.157768 -2282.183677 477442.9574
 2448.544696 -2448.547656 477451.4431
 838.5286646 -2530.07211 477456.5602
 -838.5286101 -2530.071906 477456.5602
 -2448.544726 -2448.547831 477451.4431
 -3858.15766 -2282.183563 477442.9574
 -4932.534683 -2012.752638 477434.2784
 -5735.105529 -1399.539234 477427.5036
 0 0 0
 4445.311417 -3440.174526 477430.912
 3615.256637 -3615.259617 477436.6252
 2282.180772 -3858.160749 477442.9574
 779.6887066 -3983.328938 477446.7473
 -779.6886902 -3983.329122 477446.7473
 -2282.180694 -3858.160602 477442.9574
 -3615.256656 -3615.259716 477436.6252
 -4445.311357 -3440.174496 477430.912
 0 0 -0
 0 0 0
 4250.702034 -4250.704952 477426.1559
 3440.171615 -4445.314344 477430.912
 2012.749584 -4932.537625 477434.2784
 684.6442518 -5098.416934 477436.2876
 -684.6442068 -5098.416814 477436.2876
 -2012.749575 -4932.53772 477434.2784
 -3440.171561 -4445.314304 477430.912
 -4250.702011 -4250.704971 477426.1559
 0 0 -0
 0 0 0
 0 0 0
 0 0 0
 1399.536345 -5735.108573 477427.5035
 543.1243249 -5772.870766 477428.7908
 -543.1242929 -5772.870806 477428.7908
 -1399.536304 -5735.108551 477427.5035
 0 0 -0
 0 0 -0
 0 0 -0
 0 0 0
 0 0 0
 0 0 0
 923.367845 3788.765272 477448.0746
 358.2896832 3812.914417 477448.6408
 -358.2896716 3812.914427 477448.6408
 -923.3678272 3788.765264 477448.0746
 0 0 -0
 0 0 -0
 0 0 -0
 0 0 0
 2808.477658 2808.474855 477447.4801
 2271.55619 2935.065851 477449.5751
 1328.01503 3255.916087 477451.0516
 451.54534 3364.611458 477451.9314
 -451.5453167 3364.611425 477451.9314
 -1328.015035 3255.916108 477451.0516
 -2271.556158 2935.065835 477449.5751
 -2808.477649 2808.474853 477447.4801
 0 0 -0
 0 0 0
 2935.068624 2271.553409 477449.575
 2385.527247 2385.524319 477452.0812
 1504.907221 2544.559412 477454.8479
 513.9490394 2626.398894 477456.4998
 -513.9490415 2626.398937 477456.4998
 -1504.90716 2544.559373 477454.8479
 -2385.527279 2385.524336 477452.0812
 -2935.068583 2271.553395 477449.575
 0 0 -0
 3788.768101 923.3650422 477448.0746
 3255.918975 1328.01208 477451.0516
 2544.562148 1504.904531 477454.8479
 1613.823882 1613.820848 477458.5453
 552.4802261 1667.11961 477460.7699
 -552.4801809 1667.119572 477460.7699
 -1613.823933 1613.820875 477458.5453
 -2544.562049 1504.904504 477454.8479
 -3255.919013 1328.012084 477451.0516
 -3788.768067 923.3650321 477448.0746
 3812.917272 358.2867762 477448.6408
 3364.614271 451.5426258 477451.9314
 2626.401836 513.9459529 477456.4998
 1667.122356 552.4775585 477460.7699
 571.1072233 571.1041907 477463.3169
 -571.1072355 571.104193 477463.3169
 -1667.122253 552.4775512 477460.7699
 -2626.401914 513.9459518 477456.4998
 -3364.614177 451.5426152 477451.9314
 -3812.917278 358.2867698 477448.6408
 3812.917293 -358.2924995 477448.6408
 3364.614298 -451.5483639 477451.9314
 2626.401784 -513.9517057 477456.4998
 1667.122496 -552.4832981 477460.7699
 571.1070212 -571.1099761 477463.3169
 -571.106968 -571.1099358 477463.3169
 -1667.122555 -552.4833346 477460.7699
 -2626.401665 -513.9516909 477456.4998
 -3364.614351 -451.5483794 477451.9314
 -3812.917245 -358.2925053 477448.6408
 3788.768151 -923.3707518 477448.0746
 3255.919008 -1328.017812 477451.0516
 2544.562234 -1504.910259 477454.8479
 1613.823781 -1613.826652 477458.5453
 552.4804282 -1667.125307 477460.7699
 -552.48043 -1667.125381 477460.7699
 -1613.82369 -1613.826596 477458.5453
 -2544.562289 -1504.910302 477454.8479
 -3255.918928 -1328.017801 477451.0516
 -3788.768143 -923.3707624 477448.0746
 0 0 0
 2935.068715 -2271.559162 477449.575
 2385.527273 -2385.530092 477452.0812
 1504.907352 -2544.56511 477454.8479
 513.9488984 -2626.404723 477456.4997
 -513.9488535 -2626.404647 477456.4997
 -1504.907374 -2544.565175 477454.8479
 -2385.527197 -2385.53006 477452.0812
 -2935.068717 -2271.55918 477449.575
 0 0 -0
 0 0 0
 2808.477794 -2808.480599 477447.48
 2271.556293 -2935.071567 477449.575
 1328.01502 -3255.921883 477451.0516
 451.5454556 -3364.617171 477451.9314
 -451.5454396 -3364.617227 477451.9314
 -1328.014968 -3255.921844 477451.0516
 -2271.556287 -2935.07159 477449.575
 -2808.47776 -2808.480599 477447.48
 0 0 -0
 0 0 0
 0 0 0
 0 0 0
 923.3679143 -3788.771044 477448.0746
 358.2896783 -3812.920201 477448.6408
 -358.2896473 -3812.920182 477448.6408
 -923.3678922 -3788.771057 477448.0746
 0 0 -0
 0 0 -0
 0 0 -0
 0 0 0
 0 0 0
 0 0 0
 524.2846495 2152.934606 477458.8582
 203.4160323 2166.348327 477459.0421
 -203.4160244 2166.348309 477459.0421
 -524.284649 2152.934615 477458.8582
 0 0 -0
 0 0 -0
 0 0 -0
 0 0 0
 1596.033576 1596.030865 477458.6649
 1290.352095 1667.190989 477459.3457
 753.9943911 1849.086148 477459.8241
 256.2984132 1910.481988 477460.109
 -256.2984167 1910.482041 477460.109
 -753.9943614 1849.086103 477459.8241
 -1290.352107 1667.191004 477459.3457
 -1596.03356 1596.030852 477458.6649
 0 0 -0
 0 0 0
 1667.193765 1290.349292 477459.3457
 1354.424704 1354.422031 477460.1579