# OOMMF OVF 2.0
#
# Segment count: 1
#
# Begin: Segment
# Begin: Header
#
# Title: Oxs_MinDriver::Magnetization
# Desc: Oxs vector field output
# Desc:  MIF source file: F:/Bogdan/UNIC/2022/Master_degree/Samples/Cylinder0_5000 1.mif
# Desc:  Iteration: 856, State id: 8518
# Desc:  Stage: 2, Stage iteration: 46
# Desc:  Stage simulation time: 0 s
# Desc:  Total simulation time: -2 s
# meshunit: m
# meshtype: rectangular
# xbase: -8.9999999999999995e-09
# ybase: -8.9999999999999995e-09
# zbase: -2.0999999999999999e-08
# xnodes: 10
# ynodes: 10
# znodes: 22
# xstepsize: 2.0000000000000001e-09
# ystepsize: 2.0000000000000001e-09
# zstepsize: 2.0000000000000001e-09
# xmin: -1e-08
# ymin: -1e-08
# zmin: -2.1999999999999998e-08
# xmax: 1e-08
# ymax: 1e-08
# zmax: 2.2000000000000005e-08
# valuedim: 3
# valuelabels: Magnetization_x Magnetization_y Magnetization_z
# valueunits: A/m A/m A/m
#
# End: Header
#
# Begin: Data Text
 0 0 0
 0 0 0
 0 0 0
 9077.988744 34558.15985 476125.1884
 3428.575366 34805.71571 476181.3502
 -3428.577364 34805.71572 476181.3502
 -9077.990732 34558.15984 476125.1883
 0 0 -0
 0 0 -0
 0 0 -0
 0 0 0
 25645.04472 25645.03634 476084.5882
 20434.42547 26762.47568 476275.2098
 12082.78273 29131.35121 476421.2863
 4086.996317 29797.08327 476515.7936
 -4086.998331 29797.08325 476515.7936
 -12082.78474 29131.3512 476421.2862
 -20434.42747 26762.47566 476275.2097
 -25645.0467 25645.03632 476084.5881
 0 0 -0
 0 0 0
 26762.48415 20434.41696 476275.2097
 21142.48239 21142.47384 476526.8749
 13135.48494 22107.82448 476770.9874
 4447.549903 22545.57606 476910.6705
 -4447.55193 22545.57607 476910.6704
 -13135.48696 22107.82445 476770.9873
 -21142.48438 21142.47381 476526.8748
 -26762.48613 20434.41693 476275.2096
 0 0 -0
 34558.16834 9077.980317 476125.1879
 29131.35976 12082.77421 476421.286
 22107.83312 13135.47631 476770.9872
 13721.30312 13721.29444 477069.5161
 4645.206436 13985.26246 477236.5302
 -4645.208474 13985.26244 477236.5302
 -13721.30515 13721.29443 477069.5161
 -22107.83513 13135.47627 476770.9871
 -29131.36174 12082.77417 476421.2859
 -34558.17031 9077.980275 476125.1878
 34805.72422 3428.566893 476181.3497
 29797.09187 4086.987747 476515.7932
 22545.58473 4447.541261 476910.6701
 13985.27121 4645.197712 477236.5301
 4734.036746 4734.027984 477417.06
 -4734.038784 4734.027986 477417.06
 -13985.27324 4645.197681 477236.53
 -22545.58674 4447.541235 476910.67
 -29797.09386 4086.987701 476515.793
 -34805.72618 3428.566849 476181.3495
 34805.72426 -3428.585858 476181.3495
 29797.09186 -4087.006884 476515.793
 22545.58478 -4447.560574 476910.6699
 13985.27118 -4645.217184 477236.5299
 4734.036771 -4734.047533 477417.0598
 -4734.038803 -4734.047553 477417.0598
 -13985.27321 -4645.217191 477236.5298
 -22545.58678 -4447.560621 476910.6699
 -29797.09383 -4087.006917 476515.7929
 -34805.72621 -3428.585909 476181.3494
 34558.1684 -9077.999185 476125.1876
 29131.35982 -12082.79327 476421.2855
 22107.83312 -13135.49557 476770.9867
 13721.30318 -13721.31381 477069.5156
 4645.206424 -13985.28193 477236.5297
 -4645.208443 -13985.28192 477236.5296
 -13721.30519 -13721.31384 477069.5155
 -22107.83512 -13135.49558 476770.9866
 -29131.36179 -12082.79332 476421.2854
 -34558.17035 -9077.999232 476125.1874
 0 0 0
 26762.48425 -20434.436 476275.2088
 21142.48249 -21142.49294 476526.8741
 13135.48495 -22107.84372 476770.9865
 4447.549955 -22545.59536 476910.6695
 -4447.551953 -22545.59538 476910.6695
 -13135.48695 -22107.84372 476770.9865
 -21142.48446 -21142.49298 476526.874
 -26762.48621 -20434.43603 476275.2087
 0 0 -0
 0 0 0
 25645.04495 -25645.05519 476084.5871
 20434.42558 -26762.4946 476275.2087
 12082.78281 -29131.37024 476421.2851
 4086.996325 -29797.10236 476515.7924
 -4086.998301 -29797.10235 476515.7924
 -12082.78477 -29131.37026 476421.2851
 -20434.42754 -26762.49463 476275.2086
 -25645.0469 -25645.05524 476084.587
 0 0 -0
 0 0 0
 0 0 0
 0 0 0
 9077.988822 -34558.17874 476125.187
 3428.57542 -34805.7346 476181.3489
 -3428.577376 -34805.73461 476181.3488
 -9077.990768 -34558.17876 476125.187
 0 0 -0
 0 0 -0
 0 0 -0
 0 0 0
 0 0 0
 0 0 0
 7661.906689 30046.65397 476456.0474
 2953.496686 30273.54699 476494.1348
 -2953.498609 30273.54697 476494.1348
 -7661.9086 30046.65397 476456.0473
 0 0 -0
 0 0 -0
 0 0 -0
 0 0 0
 22260.7455 22260.73724 476425.0099
 17952.95144 23307.81787 476556.7211
 10589.93342 25672.404 476655.6957
 3602.162468 26409.2151 476719.4658
 -3602.164402 26409.21514 476719.4658
 -10589.93535 25672.40396 476655.6957
 -17952.95336 23307.81785 476556.7211
 -22260.7474 22260.73723 476425.0098
 0 0 -0
 0 0 0
 23307.82619 17952.94309 476556.721
 18737.2414 18737.23295 476728.1229
 11732.48134 19767.39769 476910.3377
 3988.320674 20255.42848 477017.4863
 -3988.322625 20255.42843 477017.4863
 -11732.48328 19767.39771 476910.3376
 -18737.24334 18737.23292 476728.1228
 -23307.82809 17952.94306 476556.7209
 0 0 -0
 30046.66235 7661.898405 476456.047
 25672.41244 10589.92499 476655.6955
 19767.40616 11732.47289 476910.3375
 12372.12698 12372.1184 477143.3039
 4204.193756 12663.50277 477277.5207
 -4204.195711 12663.5028 477277.5207
 -12372.12894 12372.11836 477143.3038
 -19767.40808 11732.47287 476910.3374
 -25672.41436 10589.92495 476655.6954
 -30046.66424 7661.898366 476456.0468
 30273.55539 2953.488328 476494.1343
 26409.22355 3602.15407 476719.4654
 20255.43705 3988.312144 477017.486
 12663.51134 4204.185195 477277.5205
 4301.73595 4301.727318 477425.2418
 -4301.73791 4301.727281 477425.2418
 -12663.51329 4204.185202 477277.5205
 -20255.43898 3988.312091 477017.4859
 -26409.22546 3602.154043 476719.4653
 -30273.55728 2953.488281 476494.1342
 30273.55539 -2953.506962 476494.1342
 26409.22366 -3602.172846 476719.4653
 20255.43695 -3988.331114 477017.4858
 12663.51144 -4204.20428 477277.5204
 4301.735888 -4301.746509 477425.2416
 -4301.73784 -4301.746478 477425.2416
 -12663.51339 -4204.204342 477277.5203
 -20255.43888 -3988.331107 477017.4857
 -26409.22556 -3602.172914 476719.4651
 -30273.55727 -2953.507001 476494.1341
 30046.66245 -7661.916942 476456.0467
 25672.41242 -10589.94374 476655.6951
 19767.4063 -11732.49175 476910.337
 12372.12692 -12372.13746 477143.3034
 4204.193852 -12663.52186 477277.5202
 -4204.19579 -12663.52191 477277.5202
 -12372.12885 -12372.13742 477143.3034
 -19767.40821 -11732.49184 476910.337
 -25672.41432 -10589.94375 476655.695
 -30046.66434 -7661.917 476456.0465
 0 0 0
 23307.82636 -17952.96179 476556.7203
 18737.24142 -18737.25175 476728.1222
 11732.48148 -19767.41655 476910.3369
 3988.320609 -20255.44743 477017.4855
 -3988.322531 -20255.44739 477017.4855
 -11732.48339 -19767.41662 476910.3368
 -18737.24332 -18737.25174 476728.1221
 -23307.82824 -17952.96185 476556.7202
 0 0 -0
 0 0 0
 22260.74575 -22260.75581 476425.009
 17952.95162 -23307.83647 476556.7202
 10589.93342 -25672.42271 476655.6947
 3602.162572 -26409.23387 476719.4648
 -3602.164469 -26409.23391 476719.4647
 -10589.93532 -25672.4227 476655.6947
 -17952.9535 -23307.83652 476556.7201
 -22260.74763 -22260.75585 476425.009
 0 0 -0
 0 0 0
 0 0 0
 0 0 0
 7661.906804 -30046.6726 476456.0462
 2953.496712 -30273.56559 476494.1336
 -2953.498594 -30273.56559 476494.1336
 -7661.908675 -30046.67263 476456.0462
 0 0 -0
 0 0 -0
 0 0 -0
 0 0 0
 0 0 0
 0 0 0
 6151.849335 24559.60611 476792.2522
 2384.78964 24750.32877 476816.1127
 -2384.791435 24750.32879 476816.1127
 -6151.851124 24559.60609 476792.2522
 0 0 -0
 0 0 -0
 0 0 -0
 0 0 0
 18189.05613 18189.04804 476770.5822
 14738.5362 19077.73162 476854.9958
 8680.114947 21123.79213 476917.511
 2957.968907 21803.36865 476956.7431
 -2957.970715 21803.36859 476956.7431
 -8680.116743 21123.79215 476917.511
 -14738.538 19077.7316 476854.9957
 -18189.05791 18189.04803 476770.5821
 0 0 -0
 0 0 0
 19077.73982 14738.52797 476854.9957
 15470.09833 15470.09011 476962.4971
 9743.680976 16433.72899 477081.612
 3323.086064 16909.58612 477152.9045
 -3323.087878 16909.58619 477152.9045
 -9743.682792 16433.72893 477081.612
 -15470.10012 15470.09011 476962.4971
 -19077.7416 14738.52794 476854.9956
 0 0 -0
 24559.61437 6151.841191 476792.2519
 21123.80038 8680.10675 476917.5108
 16433.73736 9743.672627 477081.6119
 10365.39437 10365.38604 477238.922
 3536.068076 10656.74984 477331.9612
 -3536.069902 10656.74978 477331.9612
 -10365.39618 10365.38607 477238.922
 -16433.73917 9743.672581 477081.6118
 -21123.80216 8680.106721 476917.5107
 -24559.61614 6151.841154 476792.2518
 24750.33703 2384.781466 476816.1123
 21803.377 2957.960612 476956.7428
 16909.59445 3323.077776 477152.9043
 10656.7583 3536.059653 477331.9611
 3634.583198 3634.574792 477436.3318
 -3634.585021 3634.57484 477436.3318
 -10656.76011 3536.059586 477331.9611
 -16909.59625 3323.07778 477152.9042
 -21803.37879 2957.960555 476956.7427
 -24750.3388 2384.781432 476816.1122
 24750.33711 -2384.799665 476816.1122
 21803.3769 -2957.978947 476956.7427
 16909.59463 -3323.096238 477152.9041
 10656.75816 -3536.078265 477331.961
 3634.583319 -3634.593456 477436.3317
 -3634.585136 -3634.593532 477436.3317
 -10656.75997 -3536.078215 477331.9609
 -16909.59642 -3323.096331 477152.9041
 -21803.37868 -2957.978945 476956.7426
 -24750.33888 -2384.799724 476816.1121
 24559.61444 -6151.85932 476792.2517
 21123.80055 -8680.125013 476917.5105
 16433.73727 -9743.691082 477081.6115
 10365.39455 -10365.40455 477238.9216
 3536.067958 -10656.76847 477331.9608
 -3536.069767 -10656.76839 477331.9608
 -10365.39635 -10365.40466 477238.9215
 -16433.73906 -9743.691034 477081.6115
 -21123.80232 -8680.125103 476917.5104
 -24559.61621 -6151.859358 476792.2516
 0 0 0
 19077.73993 -14738.54629 476854.9951
 15470.09855 -15470.10843 476962.4965
 9743.680897 -16433.74745 477081.6114
 3323.086235 -16909.6046 477152.9039
 -3323.08802 -16909.60469 477152.9038
 -9743.682688 -16433.74739 477081.6114
 -15470.10032 -15470.10852 476962.4965
 -19077.74169 -14738.5463 476854.9951
 0 0 -0
 0 0 0
 18189.05646 -18189.06622 476770.5815
 14738.53632 -19077.74984 476854.9951
 8680.11512 -21123.81044 476917.5102
 2957.968838 -21803.387 476956.7423
 -2957.970611 -21803.38696 476956.7423
 -8680.116881 -21123.8105 476917.5102
 -14738.53809 -19077.74984 476854.995
 -18189.05821 -18189.06628 476770.5814
 0 0 -0
 0 0 0
 0 0 0
 0 0 0
 6151.849427 -24559.62439 476792.2513
 2384.789735 -24750.34702 476816.1117
 -2384.791491 -24750.34704 476816.1117
 -6151.851178 -24559.62439 476792.2513
 0 0 -0
 0 0 -0
 0 0 -0
 0 0 0
 0 0 0
 0 0 0
 4795.276657 19344.63377 477047.8611
 1861.211141 19493.65987 477062.2647
 -1861.212777 19493.65984 477062.2647
 -4795.278283 19344.63378 477047.8611
 0 0 -0
 0 0 -0
 0 0 -0
 0 0 0
 14327.73446 14327.72648 477033.86
 11623.83063 15031.8194 477085.7389
 6835.690956 16677.19263 477123.6903
 2329.888956 17238.808 477147.0071
 -2329.890595 17238.80807 477147.0071
 -6835.6926 16677.19257 477123.6903
 -11623.83226 15031.8194 477085.7389
 -14327.73609 14327.72647 477033.8599
 0 0 -0
 0 0 0
 15031.82745 11623.82257 477085.7388
 12231.22361 12231.21546 477150.5694
 7725.890662 13040.80919 477223.3431
 2639.590467 13450.66445 477267.2034
 -2639.59212 13450.66436 477267.2034
 -7725.892298 13040.80923 477223.3431
 -12231.22525 12231.21542 477150.5693
 -15031.82907 11623.82255 477085.7388
 0 0 -0
 19344.64193 4795.268662 477047.8608
 16677.2008 6835.682828 477123.6902
 13040.81733 7725.882546 477223.343
 8263.504227 8263.495967 477320.9616
 2826.361976 8521.404561 477379.5855
 -2826.363627 8521.404636 477379.5855
 -8263.505881 8263.495895 477320.9616
 -13040.81896 7725.882546 477223.343
 -16677.20243 6835.682791 477123.6901
 -19344.64355 4795.26863 477047.8608
 19493.66805 1861.203059 477062.2644
 17238.81617 2329.880888 477147.0069
 13450.67273 2639.582238 477267.2033
 8521.412773 2826.353784 477379.5854
 2914.703557 2914.695257 477446.2068
 -2914.705211 2914.695167 477446.2068
 -8521.41442 2826.353836 477379.5854
 -13450.67437 2639.582163 477267.2032
 -17238.81779 2329.880878 477147.0068
 -19493.66967 1861.203013 477062.2643
 19493.66805 -1861.220853 477062.2643
 17238.81635 -2329.898774 477147.0068
 13450.67256 -2639.600256 477267.2032
 8521.412971 -2826.371887 477379.5853
 2914.703406 -2914.713446 477446.2067
 -2914.705057 -2914.713347 477446.2066
 -8521.414604 -2826.372006 477379.5852
 -13450.6742 -2639.600203 477267.2031
 -17238.81796 -2329.898864 477147.0067
 -19493.66966 -1861.22088 477062.2643
 19344.64207 -4795.286382 477047.8606
 16677.20077 -6835.700712 477123.6899
 13040.81758 -7725.900509 477223.3427
 8263.504081 -8263.514069 477320.9613
 2826.362171 -8521.422669 477379.5852
 -2826.363801 -8521.422795 477379.5851
 -8263.505729 -8263.513969 477320.9613
 -13040.81918 -7725.900641 477223.3427
 -16677.20239 -6835.700689 477123.6898
 -19344.64368 -4795.286445 477047.8606
 0 0 0
 15031.8277 -11623.84047 477085.7384
 12231.22361 -12231.2334 477150.5689
 7725.890905 -13040.82717 477223.3426
 2639.590322 -13450.68252 477267.2029
 -2639.591952 -13450.68242 477267.2029
 -7725.892508 -13040.82729 477223.3426
 -12231.22524 -12231.23335 477150.5689
 -15031.8293 -11623.84055 477085.7383
 0 0 -0
 0 0 0
 14327.73478 -14327.7443 477033.8594
 11623.83088 -15031.83724 477085.7383
 6835.690941 -16677.21056 477123.6897
 2329.889132 -17238.82597 477147.0065
 -2329.890735 -17238.82604 477147.0065
 -6835.692558 -16677.21052 477123.6897
 -11623.83248 -15031.83731 477085.7383
 -14327.73638 -14327.74434 477033.8594
 0 0 -0
 0 0 0
 0 0 0
 0 0 0
 4795.276817 -19344.65172 477047.8604
 1861.211157 -19493.67778 477062.264
 -1861.212756 -19493.67776 477062.264
 -4795.278406 -19344.65176 477047.8603
 0 0 -0
 0 0 -0
 0 0 -0
 0 0 0
 0 0 0
 0 0 0
 3654.10345 14837.1482 477219.4232
 1418.557028 14947.91255 477227.848
 -1418.558476 14947.91258 477227.848
 -3654.104895 14837.14818 477219.4232
 0 0 -0
 0 0 -0
 0 0 -0
 0 0 0
 10991.14435 10991.13644 477210.9187
 8915.334155 11524.99658 477241.6186
 5235.134079 12794.27971 477263.838
 1783.683476 13231.09687 477277.3071
 -1783.684934 13231.09679 477277.3071
 -5235.13552 12794.27975 477263.838
 -8915.335613 11524.99656 477241.6186
 -10991.14579 10991.13644 477210.9187
 0 0 -0
 0 0 0
 11525.00457 8915.326142 477241.6186
 9386.691937 9386.683915 477279.427
 5934.432491 10022.67584 477321.9037
 2028.857352 10348.67369 477347.5254
 -2028.858805 10348.67378 477347.5254
 -5934.433959 10022.67578 477321.9037
 -9386.693373 9386.683918 477279.427
 -11525.00602 8915.326123 477241.6186
 0 0 -0
 14837.15631 3654.095507 477219.423
 12794.2878 5235.126089 477263.8379
 10022.68397 5934.424384 477321.9037
 6364.057716 6364.049627 477379.1668
 2179.493735 6573.009629 477413.7793
 -2179.495199 6573.009534 477413.7793
 -6364.059164 6364.049674 477379.1668
 -10022.68543 5934.424336 477321.9036
 -12794.28923 5235.126066 477263.8378
 -14837.15775 3654.095477 477219.4229
 14947.92067 1418.549049 477227.8478
 13231.10502 1783.675398 477277.3069
 10348.68181 2028.849302 477347.5252
 6573.017847 2179.485559 477413.7792
 2251.765543 2251.757416 477453.3804
 -2251.767003 2251.757513 477453.3804
 -6573.019299 2179.485459 477413.7792
 -10348.68326 2028.84933 477347.5252
 -13231.10646 1783.675338 477277.3068
 -14947.92211 1418.549022 477227.8477
 14947.92077 -1418.566523 477227.8477
 13231.10492 -1783.692957 477277.3068
 10348.68202 -2028.866948 477347.5252
 6573.017651 -2179.503311 477413.7791
 2251.765753 -2251.775192 477453.3803
 -2251.7672 -2251.775328 477453.3803
 -6573.019119 -2179.50321 477413.7791
 -10348.68345 -2028.867069 477347.5251
 -13231.10637 -1783.692936 477277.3068
 -14947.9222 -1418.566581 477227.8477
 14837.15641 -3654.112923 477219.4228
 12794.28801 -5235.143624 477263.8377
 10022.68388 -5934.442045 477321.9034
 6364.057967 -6364.067309 477379.1666
 2179.493555 -6573.027423 477413.779
 -2179.495012 -6573.02729 477413.779
 -6364.059379 -6364.067461 477379.1666
 -10022.68535 -5934.441964 477321.9034
 -12794.28942 -5235.143728 477263.8376
 -14837.15784 -3654.112953 477219.4228
 0 0 0
 11525.00473 -8915.343755 477241.6183
 9386.692216 -9386.701512 477279.4267
 5934.432408 -10022.69354 477321.9034
 2028.857567 -10348.6914 477347.525
 -2028.858989 -10348.69151 477347.525
 -5934.433868 -10022.69345 477321.9033
 -9386.693616 -9386.70163 477279.4267
 -11525.00617 -8915.343757 477241.6182
 0 0 -0
 0 0 0
 10991.14474 -10991.15399 477210.9183
 8915.33432 -11525.01413 477241.6182
 5235.134293 -12794.29736 477263.8375
 1783.683401 -13231.11453 477277.3066
 -1783.684832 -13231.11447 477277.3066
 -5235.135696 -12794.29743 477263.8375
 -8915.335757 -11525.01413 477241.6182
 -10991.14615 -10991.15405 477210.9183
 0 0 -0
 0 0 0
 0 0 0
 0 0 0
 3654.103566 -14837.16589 477219.4226
 1418.557135 -14947.93021 477227.8474
 -1418.558547 -14947.93023 477227.8474
 -3654.104979 -14837.16589 477219.4226
 0 0 -0
 0 0 -0
 0 0 -0
 0 0 0
 0 0 0
 0 0 0
 2727.543811 11122.51636 477326.6402
 1058.788587 11202.13486 477331.3969
 -1058.789835 11202.13484 477331.3969
 -2727.545049 11122.51637 477326.6402
 0 0 -0
 0 0 -0
 0 0 -0
 0 0 0
 8240.966581 8240.958657 477321.7409
 6679.99055 8633.641048 477339.1973
 3917.037989 9584.668704 477351.7175
 1333.844705 9911.703479 477359.2466
 -1333.845949 9911.703544 477359.2466
 -3917.039248 9584.668655 477351.7175
 -6679.991789 8633.64105 477339.1973
 -8240.967826 8240.958652 477321.7409
 0 0 -0
 0 0 0
 8633.649037 6679.982553 477339.1973
 7030.657561 7030.649509 477360.4625
 4444.196545 7508.987903 477384.264
 1519.387156 7755.411556 477398.5927
 -1519.388415 7755.411473 477398.5927
 -4444.197778 7508.987942 477384.264
 -7030.658824 7030.64948 477360.4624
 -8633.650269 6679.982537 477339.1972
 0 0 -0
 11122.52449 2727.535874 477326.64
 9584.676808 3917.029954 477351.7174
 7508.99599 4444.188502 477384.2639
 4770.184038 4770.175888 477416.3404
 1634.275547 4929.731544 477435.7529
 -1634.276796 4929.731623 477435.7529
 -4770.1853 4770.17582 477416.3404
 -7508.997223 4444.188503 477384.2639
 -9584.678057 3917.029927 477351.7174
 -11122.52573 2727.535847 477326.64
 11202.14301 1058.780582 477331.3967
 9911.711615 1333.836684 477359.2464
 7755.419742 1519.379041 477398.5926
 4929.739642 1634.267459 477435.7529
 1689.783347 1689.775132 477458.0197
 -1689.784597 1689.775022 477458.0197
 -4929.740895 1634.267525 477435.7529
 -7755.420981 1519.378968 477398.5926
 -9911.712857 1333.836677 477359.2464
 -11202.14425 1058.780543 477331.3967
 11202.14303 -1058.797873 477331.3967
 9911.711763 -1333.854033 477359.2464
 7755.419592 -1519.396495 477398.5926
 4929.739886 -1634.284955 477435.7528
 1689.783109 -1689.7927 477458.0197
 -1689.784366 -1689.792573 477458.0196
 -4929.741104 -1634.285089 477435.7528
 -7755.42086 -1519.396432 477398.5926
 -9911.712978 -1333.854119 477359.2463
 -11202.14427 -1058.797896 477331.3966
 11122.52464 -2727.553105 477326.6399
 9584.676831 -3917.047331 477351.7173
 7508.99623 -4444.205911 477384.2638
 4770.183896 -4770.193418 477416.3402
 1634.275784 -4929.749059 477435.7528
 -1634.277006 -4929.7492 477435.7528
 -4770.185173 -4770.193308 477416.3402
 -7508.99742 -4444.206042 477384.2638
 -9584.678088 -3917.047305 477351.7173
 -11122.52587 -2727.553161 477326.6399
 0 0 0
 8633.649311 -6679.999971 477339.197
 7030.657626 -7030.666966 477360.4622
 4444.196781 -7509.005364 477384.2637
 1519.387034 -7755.429088 477398.5925
 -1519.388281 -7755.428996 477398.5925
 -4444.197971 -7509.005478 477384.2637
 -7030.65889 -7030.666919 477360.4622
 -8633.650515 -6680.000044 477339.197
 0 0 -0
 0 0 0
 8240.966952 -8240.976052 477321.7406
 6679.990827 -8633.65842 477339.197
 3917.038028 -9584.686193 477351.7172
 1333.84485 -9911.720992 477359.2462
 -1333.84606 -9911.721045 477359.2462
 -3917.039272 -9584.686164 477351.7172
 -6679.992034 -8633.658482 477339.1969
 -8240.968178 -8240.976087 477321.7406
 0 0 -0
 0 0 0
 0 0 0
 0 0 0
 2727.543979 -11122.53391 477326.6398
 1058.788625 -11202.15236 477331.3965
 -1058.789843 -11202.15236 477331.3965
 -2727.545184 -11122.53393 477326.6398
 0 0 -0
 0 0 -0
 0 0 -0
 0 0 0
 0 0 0
 0 0 0
 1988.291608 8131.616159 477390.6103
 771.7181845 8187.334224 477393.1748
 -771.7192149 8187.334247 477393.1748
 -1988.29264 8131.616146 477390.6103
 0 0 -0
 0 0 -0
 0 0 -0
 0 0 0
 6026.003591 6025.995585 477387.9407
 4880.634586 6307.218571 477397.3918
 2858.405098 7000.476683 477404.1204
 972.7942766 7237.797721 477408.1474
 -972.795317 7237.797661 477408.1474
 -2858.406118 7000.476711 477404.1204
 -4880.63563 6307.218553 477397.3918
 -6026.004617 6025.995581 477387.9407
 0 0 -0
 0 0 0
 6307.226645 4880.626498 477397.3918
 5133.095486 5133.08736 477408.8123
 3242.712117 5480.681717 477421.531
 1108.28736 5659.940515 477429.1655
 -1108.288388 5659.940577 477429.1655
 -3242.713171 5480.681668 477421.531
 -5133.096499 5133.087357 477408.8123
 -6307.22768 4880.626484 477397.3918
 0 0 -0
 8131.624379 1988.283583 477390.6102
 7000.484875 2858.397005 477404.1203
 5480.689905 3242.70396 477421.5309
 3480.504967 3480.496799 477438.628
 1192.305728 3597.091302 477448.9613
 -1192.30677 3597.091228 477448.9613
 -3480.505988 3480.496831 477438.628
 -5480.69095 3242.703927 477421.5309
 -7000.485894 2858.39698 477404.1203
 -8131.62541 1988.283558 477390.6102
 8187.342469 771.7100967 477393.1746
 7237.805964 972.7861475 477408.1473
 5659.94872 1108.279211 477429.1654
 3597.099592 1192.297487 477448.9612
 1232.987893 1232.97974 477460.816
 -1232.988929 1232.979828 477460.816
 -3597.100618 1192.297402 477448.9612
 -5659.949756 1108.27923 477429.1654
 -7237.806985 972.7861035 477408.1473
 -8187.343495 771.7100709 477393.1746
 8187.342547 -771.7273461 477393.1746
 7237.805921 -972.803474 477408.1473
 5659.948907 -1108.296585 477429.1654
 3597.099383 -1192.314946 477448.9612
 1232.988168 -1232.997214 477460.8159
 -1232.989185 -1232.997338 477460.8159
 -3597.100441 -1192.31486 477448.9612
 -5659.949898 -1108.296683 477429.1654
 -7237.806967 -972.8034628 477408.1473
 -8187.343561 -771.7273931 477393.1746
 8131.624508 -1988.300787 477390.6101
 7000.485056 -2858.41431 477404.1202
 5480.689874 -3242.721374 477421.5308
 3480.505209 -3480.514226 477438.6279
 1192.305539 -3597.1088 477448.9612
 -1192.306581 -3597.108693 477448.9612
 -3480.506184 -3480.514346 477438.6279
 -5480.690943 -3242.721316 477421.5308
 -7000.486043 -2858.414391 477404.1202
 -8131.625538 -1988.300814 477390.6101
 0 0 0
 6307.226857 -4880.643911 477397.3916
 5133.095737 -5133.104745 477408.8121
 3242.712099 -5480.699178 477421.5308
 1108.287533 -5659.957994 477429.1653
 -1108.28853 -5659.95807 477429.1653
 -3242.713159 -5480.699124 477421.5308
 -5133.096709 -5133.104831 477408.8121
 -6307.227888 -4880.64392 477397.3916
 0 0 -0
 0 0 0
 6026.004 -6026.012954 477387.9405
 4880.634805 -6307.23594 477397.3916
 2858.405278 -7000.494136 477404.1201
 972.7942642 -7237.815196 477408.1472
 -972.7952855 -7237.815177 477408.1472
 -2858.40626 -7000.494179 477404.1201
 -4880.635837 -6307.235949 477397.3916
 -6026.005003 -6026.013004 477387.9405
 0 0 -0
 0 0 0
 0 0 0
 0 0 0
 1988.291751 -8131.633705 477390.61
 771.7182697 -8187.35173 477393.1745
 -771.7192696 -8187.351739 477393.1745
 -1988.292758 -8131.633715 477390.61
 0 0 -0
 0 0 -0
 0 0 -0
 0 0 0
 0 0 0
 0 0 0
 1399.534645 5735.096783 477427.5037
 543.1234141 5772.859537 477428.7909
 -543.1242275 5772.859517 477428.7909
 -1399.53545 5735.09679 477427.5037
 0 0 -0
 0 0 -0
 0 0 -0
 0 0 0
 4250.700938 4250.692772 477426.156
 3440.169531 4445.302096 477430.9121
 2012.749167 4932.526989 477434.2785
 684.6433247 5098.405758 477436.2877
 -684.6441301 5098.405801 477436.2877
 -2012.749994 4932.526955 477434.2785
 -3440.170333 4445.302094 477430.9121
 -4250.701752 4250.692765 477426.156
 0 0 -0
 0 0 0
 4445.310346 3440.161275 477430.9121
 3615.256569 3615.248294 477436.6253
 2282.179999 3858.148906 477442.9575
 779.6886614 3983.317782 477446.7474
 -779.6894839 3983.317731 477446.7474
 -2282.18079 3858.148925 477442.9575
 -3615.257401 3615.248276 477436.6253
 -4445.311142 3440.161258 477430.9121
 0 0 -0
 5735.105178 1399.526455 477427.5036
 4932.535333 2012.740904 477434.2785
 3858.157258 2282.171697 477442.9574
 2448.544144 2448.53576 477451.4432
 838.5285965 2530.060161 477456.5603
 -838.5294026 2530.060206 477456.5603
 -2448.54497 2448.535721 477451.4432
 -3858.158051 2282.171685 477442.9574
 -4932.536151 2012.740887 477434.2785
 -5735.105985 1399.526429 477427.5036
 5772.867951 543.115162 477428.7908
 5098.414164 684.6350367 477436.2876
 3983.326206 779.6803105 477446.7473
 2530.068483 838.5202892 477456.5603
 867.0100776 867.0015956 477462.4256
 -867.0108857 867.0015245 477462.4256
 -2530.069297 838.5203236 477456.5603
 -3983.327007 779.6802682 477446.7473
 -5098.414973 684.635018 477436.2876
 -5772.868754 543.1151335 477428.7908
 5772.867992 -543.1325342 477428.7908
 5098.414266 -684.6524555 477436.2876
 3983.3261 -779.6978178 477446.7473
 2530.068728 -838.5378264 477456.5602
 867.0098042 -867.0191852 477462.4256
 -867.0106236 -867.0191049 477462.4256
 -2530.069501 -838.5379098 477456.5602
 -3983.32694 -779.6977927 477446.7473
 -5098.415044 -684.6525077 477436.2876
 -5772.868802 -543.132559 477428.7908
 5735.105335 -1399.543771 477427.5035
 4932.535411 -2012.758356 477434.2784
 3858.15746 -2282.189181 477442.9574
 2448.544032 -2448.553325 477451.4431
 838.5288325 -2530.077741 477456.5602
 -838.5296129 -2530.077821 477456.5602
 -2448.544883 -2448.553272 477451.4431
 -3858.158205 -2282.189256 477442.9574
 -4932.536244 -2012.758355 477434.2784
 -5735.10613 -1399.543813 477427.5035
 0 0 0
 4445.310615 -3440.178796 477430.9119
 3615.256694 -3615.265829 477436.6252
 2282.180198 -3858.166466 477442.9573
 779.6885821 -3983.33537 477446.7472
 -779.6893983 -3983.335338 477446.7472
 -2282.180944 -3858.166519 477442.9573
 -3615.257536 -3615.26582 477436.6252
 -4445.311386 -3440.178843 477430.9119
 0 0 -0
 0 0 0
 4250.701344 -4250.710279 477426.1559
 3440.169804 -4445.31958 477430.9119
 2012.749258 -4932.544581 477434.2783
 684.6434226 -5098.423386 477436.2875
 -684.6441992 -5098.423392 477436.2875
 -2012.750078 -4932.544588 477434.2783
 -3440.170577 -4445.319615 477430.9119
 -4250.702144 -4250.710311 477426.1558
 0 0 -0
 0 0 0
 0 0 0
 0 0 0
 1399.53481 -5735.114467 477427.5035
 543.1234731 -5772.877169 477428.7907
 -543.1242632 -5772.877179 477428.7907
 -1399.535587 -5735.114478 477427.5035
 0 0 -0
 0 0 -0
 0 0 -0
 0 0 0
 0 0 0
 0 0 0
 923.3664964 3788.758759 477448.0747
 358.2883651 3812.909254 477448.6408
 -358.2889483 3812.909266 477448.6408
 -923.3670843 3788.75875 477448.0747
 0 0 -0
 0 0 -0
 0 0 -0
 0 0 0
 2808.476452 2808.468043 477447.4801
 2271.555887 2935.059907 477449.5751
 1328.013625 3255.9104 477451.0517
 451.5453732 3364.60591 477451.9314
 -451.5459678 3364.605879 477451.9314
 -1328.014193 3255.91041 477451.0517
 -2271.556487 2935.059894 477449.5751
 -2808.477031 2808.468034 477447.4801
 0 0 -0
 0 0 0
 2935.068386 2271.547395 477449.5751
 2385.526663 2385.518138 477452.0812
 1504.906882 2544.553902 477454.8479
 513.9481135 2626.393059 477456.4998
 -513.9486889 2626.393079 477456.4998
 -1504.907493 2544.553884 477454.8479
 -2385.527222 2385.518121 477452.0812
 -2935.06898 2271.547386 477449.5751
 0 0 -0
 3788.767396 923.3580657 477448.0746
 3255.918999 1328.005123 477451.0516
 2544.562505 1504.89831 477454.8479
 1613.823449 1613.814907 477458.5453
 552.4803816 1667.112985 477460.7699
 -552.4809747 1667.112966 477460.7699
 -1613.824015 1613.814899 477458.5453
 -2544.563108 1504.898305 477454.8479
 -3255.919568 1328.00509 477451.0516
 -3788.767981 923.3580467 477448.0746
 3812.917916 358.2798666 477448.6408
 3364.614566 451.536829 477451.9314
 2626.401659 513.9395829 477456.4998
 1667.121704 552.4716931 477460.7699
 571.1065214 571.0980172 477463.3169
 -571.1071058 571.0980373 477463.3169
 -1667.122283 552.4716707 477460.7699
 -2626.402244 513.9395604 477456.4998
 -3364.615144 451.5368152 477451.9314
 -3812.918497 358.2798369 477448.6408
 3812.917983 -358.2975015 477448.6408
 3364.614564 -451.5545277 477451.9314
 2626.401814 -513.9573271 477456.4998
 1667.121505 -552.4895057 477460.7699
 571.1068117 -571.1158513 477463.3169
 -571.1073778 -571.11589 477463.3169
 -1667.122118 -552.4894947 477460.7699
 -2626.402355 -513.9573568 477456.4998
 -3364.615167 -451.5545512 477451.9314
 -3812.918553 -358.2975296 477448.6408
 3788.767542 -923.3756542 477448.0746
 3255.919157 -1328.022816 477451.0516
 2544.562515 -1504.916099 477454.8478
 1613.823675 -1613.832714 477458.5452
 552.4801953 -1667.13083 477460.7698
 -552.480793 -1667.130808 477460.7698
 -1613.824196 -1613.832748 477458.5452
 -2544.563147 -1504.916105 477454.8478
 -3255.919696 -1328.022849 477451.0516
 -3788.768129 -923.3756833 477448.0746
 0 0 0
 2935.068629 -2271.565207 477449.575
 2385.526897 -2385.535912 477452.0811
 1504.906898 -2544.571737 477454.8478
 513.948264 -2626.410933 477456.4997
 -513.9488129 -2626.410937 477456.4997
 -1504.907521 -2544.571746 477454.8478
 -2385.527417 -2385.53594 477452.0811
 -2935.069223 -2271.56523 477449.575
 0 0 -0
 0 0 0
 2808.476876 -2808.485818 477447.48
 2271.556135 -2935.07768 477449.575
 1328.013789 -3255.928263 477451.0515
 451.5453858 -3364.623785 477451.9313
 -451.5459676 -3364.623807 477451.9313
 -1328.014324 -3255.928265 477451.0515
 -2271.556727 -2935.077704 477449.575
 -2808.477437 -2808.485849 477447.48
 0 0 -0
 0 0 0
 0 0 0
 0 0 0
 923.3666517 -3788.776727 477448.0745
 358.2884408 -3812.92718 477448.6407
 -358.2890004 -3812.927174 477448.6407
 -923.3672213 -3788.776742 477448.0745
 0 0 -0
 0 0 -0
 0 0 -0
 0 0 0
 0 0 0
 0 0 0
 524.2838493 2152.929157 477458.8582
 203.4156347 2166.342736 477459.0421
 -203.415995 2166.342729 477459.0421
 -524.2842012 2152.929155 477458.8582
 0 0 -0
 0 0 -0
 0 0 -0
 0 0 0
 1596.033655 1596.024937 477458.6649
 1290.352192 1667.185039 477459.3457
 753.9935435 1849.079442 477459.8242
 256.2978656 1910.475657 477460.109
 -256.2982148 1910.475663 477460.109
 -753.9939195 1849.079433 477459.8242
 -1290.352536 1667.185025 477459.3457
 -1596.034017 1596.024928 477458.6649
 0 0 -0
 0 0 0
 1667.193823 1290.343394 477459.3457
 1354.423954 1354.415094 477460.1579