# OOMMF OVF 2.0
#
# Segment count: 1
#
# Begin: Segment
# Begin: Header
#
# Title: Oxs_MinDriver::Magnetization
# Desc: Oxs vector field output
# Desc:  MIF source file: F:/Bogdan/UNIC/2022/Master_degree/Samples/Cylinder0_5000 1.mif
# Desc:  Iteration: 518, State id: 11191
# Desc:  Stage: 0, Stage iteration: 518
# Desc:  Stage simulation time: -1 s
# Desc:  Total simulation time: -2 s
# meshunit: m
# meshtype: rectangular
# xbase: -8.9999999999999995e-09
# ybase: -8.9999999999999995e-09
# zbase: -2.0999999999999999e-08
# xnodes: 10
# ynodes: 10
# znodes: 22
# xstepsize: 2.0000000000000001e-09
# ystepsize: 2.0000000000000001e-09
# zstepsize: 2.0000000000000001e-09
# xmin: -1e-08
# ymin: -1e-08
# zmin: -2.1999999999999998e-08
# xmax: 1e-08
# ymax: 1e-08
# zmax: 2.2000000000000005e-08
# valuedim: 3
# valuelabels: Magnetization_x Magnetization_y Magnetization_z
# valueunits: A/m A/m A/m
#
# End: Header
#
# Begin: Data Text
 0 0 0
 0 0 0
 0 0 0
 -2405.159605 -475274.4007 -45610.64027
 -917.8238416 -475235.3582 -46069.33039
 917.8103483 -475235.3578 -46069.3347
 2405.146496 -475274.4 -45610.64865
 0 0 -0
 0 0 -0
 0 0 -0
 0 0 0
 -7118.917826 -476209.7336 -33844.96843
 -4022.50882 -476131.9563 -35412.58186
 -1784.289063 -475907.6664 -38478.31487
 -616.6960302 -475836.4978 -39384.23993
 616.6815355 -475836.4975 -39384.24411
 1784.275675 -475907.6656 -38478.32437
 4022.49689 -476131.9555 -35412.59385
 7118.905215 -476209.733 -33844.9807
 0 0 -0
 0 0 0
 -3977.230188 -476688.948 -26901.66805
 -2767.498134 -476639.9032 -27903.67261
 -1403.053505 -476568.4698 -29195.8269
 -440.0086583 -476533.532 -29790.44396
 439.992144 -476533.5319 -29790.44669
 1403.038557 -476568.4694 -29195.83454
 2767.483491 -476639.9026 -27903.68371
 3977.215468 -476688.9475 -26901.68003
 0 0 -0
 -2410.974294 -477313.1303 -11757.30278
 -1761.72907 -477197.3815 -15856.44074
 -1390.463038 -477148.1096 -17309.51686
 -808.3378528 -477119.5951 -18113.8041
 -260.3204147 -477106.2684 -18477.34242
 260.3034246 -477106.2683 -18477.34502
 808.3213151 -477119.5948 -18113.81157
 1390.4478 -477148.1093 -17309.52827
 1761.712708 -477197.381 -15856.45583
 2410.957697 -477313.1299 -11757.32196
 -920.3768088 -477442.405 -4446.804396
 -612.1428367 -477433.5949 -5353.417281
 -435.1672445 -477427.8886 -5856.030918
 -258.9739528 -477424.5678 -6130.768781
 -84.91343298 -477423.0291 -6254.228668
 84.89700257 -477423.0291 -6254.231852
 258.9575693 -477424.5677 -6130.776352
 435.1505499 -477427.8884 -5856.045813
 612.1257964 -477433.5947 -5353.433864
 920.3592289 -477442.4049 -4446.823712
 920.3575289 -477442.4049 4446.825047
 612.1244947 -477433.5947 5353.437178
 435.1491223 -477427.8884 5856.050687
 258.9559126 -477424.5676 6130.783609
 84.89588001 -477423.029 6254.238621
 -84.91397667 -477423.029 6254.235188
 -258.9744842 -477424.5677 6130.773582
 -435.1674494 -477427.8886 5856.035849
 -612.1428743 -477433.5948 5353.420897
 -920.3769992 -477442.405 4446.807702
 2410.955043 -477313.1299 11757.3238
 1761.710494 -477197.3809 15856.46063
 1390.444971 -477148.109 17309.53581
 808.3189903 -477119.5945 18113.82007
 260.3021565 -477106.268 18477.35308
 -260.3212226 -477106.2682 18477.34839
 -808.339045 -477119.5949 18113.80868
 -1390.464833 -477148.1095 17309.5203
 -1761.730141 -477197.3814 15856.44416
 -2410.975712 -477313.1302 11757.30567
 0 0 0
 3977.212043 -476688.947 26901.68854
 2767.479578 -476639.9021 27903.69234
 1403.035322 -476568.4688 29195.84381
 439.9903413 -476533.5313 29790.45513
 -440.010252 -476533.5316 29790.45083
 -1403.056013 -476568.4695 29195.83248
 -2767.500827 -476639.9029 27903.67751
 -3977.232354 -476688.9478 26901.67132
 0 0 -0
 0 0 0
 7118.899867 -476209.7324 33844.98936
 4022.491038 -476131.9549 35412.60211
 1784.271273 -475907.665 38478.33216
 616.6785494 -475836.4968 39384.25233
 -616.6988693 -475836.4971 39384.2482
 -1784.292933 -475907.6656 38478.32378
 -4022.513492 -476131.9557 35412.58894
 -7118.921751 -476209.7332 33844.97396
 0 0 -0
 0 0 0
 0 0 0
 0 0 0
 2405.142293 -475274.3992 45610.65714
 917.8064526 -475235.357 46069.34305
 -917.8276716 -475235.3573 46069.33941
 -2405.163723 -475274.3998 45610.64965
 0 0 -0
 0 0 -0
 0 0 -0
 0 0 0
 0 0 0
 0 0 0
 -2465.337452 -475632.7633 -41704.5309
 -944.803114 -475594.7095 -42197.75958
 944.787292 -475594.7092 -42197.76352
 2465.32203 -475632.7627 -41704.53861
 0 0 -0
 0 0 -0
 0 0 -0
 0 0 0
 -7503.826894 -476405.904 -30870.35021
 -4071.204988 -476341.3354 -32468.8895
 -1700.619115 -476130.0011 -35625.85061
 -590.1085821 -476055.1394 -36647.33738
 590.0933292 -476055.1391 -36647.34105
 1700.60444 -476130.0005 -35625.85902
 4071.1909 -476341.3347 -32468.90126
 7503.813202 -476405.9035 -30870.36169
 0 0 -0
 0 0 0
 -4004.7954 -476803.0762 -24792.32616
 -2728.191828 -476750.8403 -25943.48678
 -1328.727266 -476678.1491 -27350.46575
 -409.9482051 -476641.0344 -28018.34266
 409.9326954 -476641.0342 -28018.34649
 1328.711659 -476678.1487 -27350.47351
 2728.177513 -476750.8398 -25943.4973
 4004.779601 -476803.0757 -24792.33893
 0 0 -0
 -2497.894709 -477342.616 -10471.80836
 -1679.214009 -477237.9134 -14595.3934
 -1314.799442 -477187.5532 -16192.02613
 -753.3167375 -477157.8552 -17078.79011
 -240.1013032 -477143.7759 -17482.298
 240.0859752 -477143.7758 -17482.30104
 753.3016305 -477157.8549 -17078.79823
 1314.78277 -477187.5528 -16192.03909
 1679.198017 -477237.913 -14595.40883
 2497.878442 -477342.6157 -10471.82723
 -949.943847 -477446.0789 -4026.239208
 -585.8086123 -477437.9844 -4949.660575
 -404.4872658 -477432.2113 -5494.66075
 -238.5212956 -477428.7501 -5796.811449
 -77.76986621 -477427.1296 -5933.053549
 77.75371153 -477427.1296 -5933.057493
 238.5049071 -477428.7499 -5796.821115
 404.4706785 -477432.2112 -5494.674435
 585.7916064 -477437.9843 -4949.678287
 949.9262659 -477446.0788 -4026.258744
 949.9237201 -477446.0788 4026.262458
 585.789061 -477437.9842 4949.682549
 404.4686351 -477432.2111 5494.680196
 238.5033594 -477428.7499 5796.828089
 77.75302991 -477427.1295 5933.06444
 -77.76986606 -477427.1296 5933.060298
 -238.5208113 -477428.75 5796.817263
 -404.4867793 -477432.2112 5494.666161
 -585.8082063 -477437.9844 4949.665693
 -949.9430156 -477446.0789 4026.243217
 2497.874685 -477342.6156 10471.83157
 1679.194357 -477237.9128 14595.41514
 1314.779765 -477187.5525 16192.04619
 753.2986362 -477157.8546 17078.806
 240.0837498 -477143.7755 17482.3092
 -240.1028696 -477143.7757 17482.30427
 -753.3180371 -477157.8549 17078.79598
 -1314.800135 -477187.553 16192.03138
 -1679.214751 -477237.9133 14595.39752
 -2497.895299 -477342.6159 10471.81204
 0 0 0
 4004.775612 -476803.0752 24792.34777
 2728.173018 -476750.8394 25943.50589
 1328.708295 -476678.1482 27350.48211
 409.9309208 -476641.0338 28018.35389
 -409.9494835 -476641.034 28018.35044
 -1328.729266 -476678.1487 27350.47208
 -2728.194007 -476750.84 25943.49219
 -4004.796929 -476803.076 24792.33056
 0 0 -0
 0 0 0
 7503.807767 -476405.9029 30870.37124
 4071.185782 -476341.3342 32468.90915
 1700.601105 -476130 35625.86643
 590.0911668 -476055.1385 36647.34896
 -590.1104729 -476055.1388 36647.34534
 -1700.621481 -476130.0005 35625.85886
 -4071.208076 -476341.3348 32468.89707
 -7503.829729 -476405.9036 30870.35543
 0 0 -0
 0 0 0
 0 0 0
 0 0 0
 2465.319963 -475632.7621 41704.54591
 944.7858353 -475594.7086 42197.77093
 -944.8044491 -475594.7087 42197.76847
 -2465.339046 -475632.7625 41704.54012
 0 0 -0
 0 0 -0
 0 0 -0
 0 0 0
 0 0 0
 0 0 0
 -2608.501139 -476062.8301 -36458.86523
 -998.3339712 -476031.9581 -36938.45545
 998.3169542 -476031.9579 -36938.45847
 2608.483841 -476062.8298 -36458.87036
 0 0 -0
 0 0 -0
 0 0 -0
 0 0 0
 -7951.368952 -476636.7471 -26945.4696
 -4305.166477 -476595.6908 -28458.46658
 -1782.667137 -476427.7307 -31389.66161
 -611.661775 -476362.7509 -32404.11615
 611.6450212 -476362.7507 -32404.11905
 1782.650652 -476427.7303 -31389.66816
 4305.150097 -476595.6904 -28458.47618
 7951.352687 -476636.7468 -26945.47962
 0 0 -0
 0 0 0
 -4230.098802 -476949.2453 -21757.64242
 -2841.775901 -476904.7726 -22926.69811
 -1357.324617 -476841.4683 -24336.04398
 -412.961925 -476807.3358 -25029.28803
 412.9469544 -476807.3356 -25029.29202
 1357.309073 -476841.468 -24336.05064
 2841.75955 -476904.7721 -22926.70948
 4230.082869 -476949.2449 -21757.65339
 0 0 -0
 -2655.800136 -477371.5584 -9011.840722
 -1762.743422 -477288.9703 -12806.36178
 -1342.922025 -477245.2665 -14388.31027
 -753.0619362 -477218.1517 -15301.62922
 -236.8256563 -477204.8442 -15727.42556
 236.8109647 -477204.8441 -15727.4285
 753.0467114 -477218.1515 -15301.63764
 1342.90641 -477245.2662 -14388.32254
 1762.727113 -477288.9699 -12806.37659
 2655.783538 -477371.5581 -9011.857746
 -1007.078131 -477450.2451 -3481.461945
 -608.2075452 -477443.7845 -4351.326043
 -407.3107767 -477438.7125 -4897.06173
 -235.1280855 -477435.5021 -5211.269062
 -75.75953838 -477433.954 -5355.850985
 75.74393831 -477433.9539 -5355.854243
 235.1117858 -477435.502 -5211.277607
 407.2939687 -477438.7124 -4897.074954
 608.1902506 -477443.7844 -4351.342042
 1007.061558 -477450.245 -3481.480053
 1007.05782 -477450.2449 3481.486337
 608.1871738 -477443.7843 4351.348432
 407.2911967 -477438.7123 4897.081496
 235.1096911 -477435.502 5211.284766
 75.7424589 -477433.9539 5355.861791
 -75.75994237 -477433.9539 5355.858064
 -235.1271807 -477435.502 5211.275953
 -407.3090361 -477438.7124 4897.068667
 -608.2048633 -477443.7844 4351.332269
 -1007.075503 -477450.245 3481.467395
 2655.779038 -477371.558 9011.865604
 1762.723102 -477288.9697 12806.38512
 1342.902668 -477245.2659 14388.33017
 753.0440561 -477218.1512 15301.64564
 236.8091209 -477204.8438 15727.43632
 -236.8264356 -477204.8439 15727.43269
 -753.062065 -477218.1515 15301.63609
 -1342.92139 -477245.2663 14388.31688
 -1762.742115 -477288.9701 12806.36691
 -2655.798278 -477371.5583 9011.845177
 0 0 0
 4230.07821 -476949.2445 21757.66357
 2841.75629 -476904.7717 22926.71854
 1357.306709 -476841.4676 24336.05933
 412.9449755 -476807.3352 25029.29974
 -412.963235 -476807.3354 25029.29573
 -1357.324625 -476841.468 24336.05054
 -2841.775657 -476904.7723 22926.70428
 -4230.098775 -476949.245 21757.64746
 0 0 -0
 0 0 0
 7951.348081 -476636.7463 26945.49079
 4305.146829 -476595.6899 28458.48531
 1782.649071 -476427.7298 31389.67635
 611.6446058 -476362.7502 32404.12694
 -611.6617233 -476362.7504 32404.12383
 -1782.666852 -476427.7302 31389.66883
 -4305.166381 -476595.6904 28458.47308
 -7951.36935 -476636.7468 26945.47448
 0 0 -0
 0 0 0
 0 0 0
 0 0 0
 2608.48388 -476062.8292 36458.87772
 998.3173463 -476031.9573 36938.4656
 -998.3331112 -476031.9575 36938.46377
 -2608.499993 -476062.8295 36458.87301
 0 0 -0
 0 0 -0
 0 0 -0
 0 0 0
 0 0 0
 0 0 0
 -2785.125944 -476452.3929 -30939.16079
 -1065.109453 -476431.2392 -31368.95248
 1065.088831 -476431.2391 -31368.95422
 2785.104282 -476452.3928 -30939.16369
 0 0 -0
 0 0 -0
 0 0 -0
 0 0 0
 -8400.531492 -476843.1544 -22845.31634
 -4618.377323 -476828.6253 -24186.85642
 -1949.149368 -476710.2168 -26747.7341
 -664.7107204 -476661.3103 -27666.30943
 664.690354 -476661.3102 -27666.312
 1949.127269 -476710.2167 -26747.73829
 4618.355457 -476828.625 -24186.86479
 8400.511176 -476843.1543 -22845.32522
 0 0 -0
 0 0 0
 -4538.854648 -477084.0985 -18494.13439
 -3055.271979 -477053.0441 -19568.58909
 -1468.31184 -477005.7081 -20863.12144
 -446.4227056 -476978.7835 -21515.39114
 446.4034499 -476978.7835 -21515.39338
 1468.291836 -477005.7079 -20863.12684
 3055.252324 -477053.0439 -19568.59822
 4538.836818 -477084.0984 -18494.1436
 0 0 -0
 -2840.626354 -477395.3649 -7580.743291
 -1930.18907 -477336.0017 -10885.17864
 -1453.74882 -477302.7076 -12324.09279
 -809.8155389 -477281.286 -13182.92681
 -253.6079832 -477270.4184 -13592.45082
 253.5906401 -477270.4183 -13592.4528
 809.7969826 -477281.2858 -13182.93267
 1453.730584 -477302.7073 -12324.10388
 1930.171922 -477336.0015 -10885.19128
 2840.609638 -477395.3648 -7580.758744
 -1076.335708 -477453.7824 -2932.322033
 -661.9060136 -477449.1945 -3701.331144
 -440.7320331 -477445.2973 -4202.99409
 -251.8590972 -477442.712 -4501.619286
 -80.65474528 -477441.4272 -4642.020127
 80.63789285 -477441.4272 -4642.021981
 251.8416343 -477442.712 -4501.6261
 440.7141754 -477445.2972 -4203.005076
 661.889385 -477449.1944 -3701.345854
 1076.319439 -477453.7823 -2932.338797
 1076.314884 -477453.7822 2932.347584
 661.8851189 -477449.1943 3701.354725
 440.7112256 -477445.2971 4203.013629
 251.8401083 -477442.7119 4501.634294
 80.63748199 -477441.4271 4642.030328
 -80.65385209 -477441.4272 4642.027785
 -251.8567476 -477442.712 4501.627397
 -440.7286031 -477445.2972 4203.002088
 -661.9020206 -477449.1944 3701.338913
 -1076.330996 -477453.7823 2932.329576
 2840.604691 -477395.3646 7580.769912
 1930.167653 -477336.0013 10885.20223
 1453.728718 -477302.7071 12324.11367
 809.7961921 -477281.2856 13182.94175
 253.5904752 -477270.4181 13592.46165
 -253.6070313 -477270.4182 13592.45839
 -809.812617 -477281.2858 13182.93419
 -1453.74475 -477302.7074 12324.10009
 -1930.18527 -477336.0016 10885.18493
 -2840.621886 -477395.3649 7580.748786
 0 0 0
 4538.833647 -477084.0979 18494.15662
 3055.251055 -477053.0435 19568.60898
 1468.292404 -477005.7074 20863.13719
 446.4044944 -476978.7831 21515.40197
 -446.4204898 -476978.7832 21515.39887
 -1468.30829 -477005.7078 20863.12776
 -3055.268046 -477053.0439 19568.59587
 -4538.851316 -477084.0984 18494.1395
 0 0 -0
 0 0 0
 8400.508803 -476843.1537 22845.33872
 4618.355563 -476828.6244 24186.8765
 1949.129326 -476710.2161 26747.74846
 664.6928091 -476661.3098 27666.32006
 -664.7072074 -476661.3099 27666.31728
 -1949.144661 -476710.2165 26747.74
 -4618.372508 -476828.625 24186.8622
 -8400.527839 -476843.1542 22845.32123
 0 0 -0
 0 0 0
 0 0 0
 0 0 0
 2785.107215 -476452.3922 30939.17275
 1065.092855 -476431.2386 31368.9622
 -1065.10477 -476431.2387 31368.95991
 -2785.121193 -476452.3925 30939.16686
 0 0 -0
 0 0 -0
 0 0 -0
 0 0 0
 0 0 0
 0 0 0
 -2958.610889 -476767.205 -25615.42893
 -1131.671067 -476755.275 -25980.73111
 1131.644548 -476755.275 -25980.73274
 2958.584559 -476767.205 -25615.4302
 0 0 -0
 0 0 -0
 0 0 -0
 0 0 0
 -8812.026053 -477008.2112 -18904.65379
 -4934.754875 -477017.7086 -20040.58851
 -2134.214767 -476943.2217 -22191.88355
 -726.7885787 -476910.2354 -22977.6065
 726.761976 -476910.2354 -22977.60755
 2134.18892 -476943.2216 -22191.88828
 4934.730176 -477017.7084 -20040.59785
 8812.003732 -477008.2112 -18904.66349
 0 0 -0
 0 0 0
 -4852.134514 -477193.3974 -15322.84596
 -3295.540375 -477176.0265 -16249.62971
 -1610.237919 -477145.2812 -17368.334
 -492.8822101 -477126.5928 -17939.97717
 492.8586184 -477126.5928 -17939.97967
 1610.215123 -477145.2811 -17368.33876
 3295.518716 -477176.0263 -16249.63854
 4852.11481 -477193.3972 -15322.85611
 0 0 -0
 -3019.340253 -477413.6141 -6244.670333
 -2115.801611 -477374.1449 -9017.787345
 -1595.570368 -477351.208 -10254.25167
 -893.6812048 -477336.2525 -11007.9352
 -280.9249236 -477328.4522 -11372.82449
 280.9044454 -477328.4521 -11372.82565
 893.6615216 -477336.2524 -11007.94099
 1595.550812 -477351.2078 -10254.26149
 2115.782752 -477374.1447 -9017.800468
 3019.322089 -477413.614 -6244.68798
 -1144.54147 -477456.5128 -2416.554995
 -724.4108815 -477453.598 -3067.29746
 -487.1766916 -477450.9135 -3501.314128
 -279.1472515 -477449.0707 -3765.399417
 -89.52149249 -477448.1328 -3891.502055
 89.50311436 -477448.1328 -3891.504605
 279.1293662 -477449.0707 -3765.404863
 487.1587839 -477450.9134 -3501.324525
 724.3937415 -477453.5979 -3067.312917
 1144.525134 -477456.5127 -2416.57362
 1144.520388 -477456.5127 2416.583817
 724.3893004 -477453.5978 3067.323362
 487.1562106 -477450.9133 3501.334988
 279.1283561 -477449.0706 3765.414807
 89.50354235 -477448.1327 3891.513679
 -89.51964837 -477448.1327 3891.511062
 -279.1437497 -477449.0707 3765.408068
 -487.1716551 -477450.9134 3501.322771
 -724.4050324 -477453.5979 3067.306305
 -1144.534971 -477456.5127 2416.563993
 3019.318073 -477413.6139 6244.70007
 2115.780239 -477374.1445 9017.813275
 1595.550168 -477351.2076 10254.2728
 893.6627889 -477336.2522 11007.9519
 280.9068132 -477328.4519 11372.83544
 -280.9209066 -477328.452 11372.8326
 -893.6757213 -477336.2524 11007.94265
 -1595.563614 -477351.2079 10254.25939
 -2115.794567 -477374.1448 9017.794032
 -3019.332523 -477413.6141 6244.677411
 0 0 0
 4852.113704 -477193.3968 15322.87036
 3295.520429 -477176.0259 16249.65116
 1610.218847 -477145.2807 17368.34978
 492.8631955 -477126.5924 17939.98893
 -492.8762302 -477126.5925 17939.98538
 -1610.2303 -477145.281 17368.34096
 -3295.53234 -477176.0263 16249.63624
 -4852.127326 -477193.3972 15322.85161
 0 0 -0
 0 0 0
 8812.004245 -477008.2106 18904.67838
 4934.733541 -477017.7079 20040.61038
 2134.194318 -476943.221 22191.89979
 726.7691099 -476910.235 22977.61681
 -726.780453 -476910.2351 22977.61377
 -2134.205781 -476943.2215 22191.88941
 -4934.745717 -477017.7084 20040.5949
 -8812.018077 -477008.2111 18904.65909
 0 0 -0
 0 0 0
 0 0 0
 0 0 0
 2958.591339 -476767.2044 25615.4409
 1131.652378 -476755.2745 25980.74115
 -1131.66216 -476755.2746 25980.73837
 -2958.601947 -476767.2047 25615.43392
 0 0 -0
 0 0 -0
 0 0 -0
 0 0 0
 0 0 0
 0 0 0
 -3110.674774 -477005.654 -20683.35282
 -1190.500573 -477001.2703 -20981.94683
 1190.472431 -477001.2704 -20981.9483
 3110.647487 -477005.654 -20683.3551
 0 0 -0
 0 0 -0
 0 0 -0
 0 0 0
 -9163.83135 -477132.0701 -15260.50917
 -5216.137866 -477160.9928 -16187.96375
 -2304.611778 -477121.3529 -17938.07787
 -785.1401674 -477101.5864 -18583.08595
 785.1134386 -477101.5863 -18583.08908
 2304.58575 -477121.3529 -17938.08322
 5216.112431 -477160.9927 -16187.97359
 9163.807508 -477132.0702 -15260.52182
 0 0 -0
 0 0 0
 -5131.141409 -477275.9795 -12376.6735
 -3519.222132 -477270.1606 -13140.78311
 -1748.950581 -477253.5948 -14064.80531
 -539.6641427 -477242.2338 -14540.64435
 539.6407701 -477242.2338 -14540.64643
 1748.927735 -477253.5947 -14064.81174
 3519.200836 -477270.1605 -13140.79366
 5131.121168 -477275.9794 -12376.68669
 0 0 -0
 -3175.126789 -477426.9783 -5026.957651
 -2286.540639 -477402.9781 -7282.823067
 -1734.199771 -477388.6805 -8301.297711
 -980.3561281 -477379.4853 -8929.568494
 -310.1197715 -477374.5513 -9236.495984
 310.0995388 -477374.5513 -9236.498542
 980.3364989 -477379.4853 -8929.574249
 1734.181694 -477388.6804 -8301.308973
 2286.524174 -477402.978 -7282.837928
 3175.111804 -477426.9781 -5026.97818
 -1204.557098 -477458.516 -1945.7229
 -783.0723846 -477456.9303 -2477.455158
 -533.9533253 -477455.2766 -2836.375392
 -308.3254619 -477454.1103 -3057.581015
 -99.34050161 -477453.5047 -3164.22424
 99.32328549 -477453.5046 -3164.226838
 308.3089342 -477454.1103 -3057.587732
 533.937556 -477455.2766 -2836.387705
 783.0570419 -477456.9302 -2477.473833
 1204.542771 -477458.5159 -1945.74523
 1204.536949 -477458.5159 1945.755887
 783.0522402 -477456.9302 2477.484715
 533.9341534 -477455.2765 2836.398886
 308.3078306 -477454.1102 3057.598886
 99.32409484 -477453.5046 3164.236764
 -99.33790423 -477453.5046 3164.234616
 -308.3216143 -477454.1102 3057.590077
 -533.9480193 -477455.2766 2836.384208
 -783.0660139 -477456.9303 2477.464074
 -1204.550384 -477458.516 1945.73156
 3175.106946 -477426.978 5026.990424
 2286.520628 -477402.9778 7282.851318
 1734.180477 -477388.6802 8301.321687
 980.3383357 -477379.485 8929.586083
 310.1031828 -477374.5511 9236.50935
 -310.1145399 -477374.5512 9236.504822
 -980.3490867 -477379.4852 8929.576404
 -1734.193034 -477388.6804 8301.304904
 -2286.533023 -477402.9781 7282.829351
 -3175.11881 -477426.9782 5026.964773
 0 0 0
 5131.120536 -477275.979 12376.70107
 3519.202613 -477270.1601 13140.80599
 1748.931693 -477253.5943 14064.82349
 539.6466831 -477242.2335 14540.6563
 -539.6565337 -477242.2335 14540.65312
 -1748.941974 -477253.5946 14064.81257
 -3519.212991 -477270.1605 13140.79039
 -5131.132723 -477275.9795 12376.67924
 0 0 -0
 0 0 0
 9163.809894 -477132.0697 15260.53605
 5216.116851 -477160.9922 16187.9864
 2304.592766 -477121.3524 17938.09435
 785.121656 -477101.586 18583.0987
 -785.1303956 -477101.5861 18583.09378
 -2304.600839 -477121.3527 17938.08477
 -5216.126724 -477160.9927 16187.97056
 -9163.820433 -477132.0701 15260.51532
 0 0 -0
 0 0 0
 0 0 0
 0 0 0
 3110.65644 -477005.6535 20683.36644
 1190.482522 -477001.2699 20981.95749
 -1190.489499 -477001.27 20981.95431
 -3110.663202 -477005.6538 20683.35828
 0 0 -0
 0 0 -0
 0 0 -0
 0 0 0
 0 0 0
 0 0 0
 -3234.777941 -477178.3082 -16194.7435
 -1238.713365 -477179.6284 -16429.8234
 1238.686195 -477179.6285 -16429.82456
 3234.750539 -477178.3083 -16194.74598
 0 0 -0
 0 0 -0
 0 0 -0
 0 0 0
 -9448.434672 -477220.9818 -11947.08911
 -5447.849299 -477264.5829 -12677.15069
 -2446.998089 -477250.8788 -14052.83698
 -834.3521595 -477241.1537 -14562.15564
 834.3274518 -477241.1537 -14562.15792
 2446.973452 -477250.8787 -14052.84243
 5447.824787 -477264.5829 -12677.16101
 9448.409594 -477220.9819 -11947.10238
 0 0 -0
 0 0 0
 -5361.047527 -477335.5087 -9692.398184
 -3707.412859 -477338.5563 -10297.04275
 -1868.271985 -477332.9418 -11029.21258
 -580.4550979 -477327.3465 -11407.83131
 580.4334071 -477327.3465 -11407.83368
 1868.251225 -477332.9417 -11029.21902
 3707.392098 -477338.5562 -10297.05437
 5361.026574 -477335.5087 -9692.41167
 0 0 -0
 -3302.01944 -477436.4194 -3928.539343
 -2429.184896 -477423.7668 -5702.392683
 -1853.465754 -477416.0405 -6508.471072
 -1056.933148 -477411.3834 -7008.936125
 -336.3226442 -477408.7642 -7254.65889
 336.3039541 -477408.7641 -7254.661393
 1056.914607 -477411.3833 -7008.943418
 1853.44848 -477416.0404 -6508.483225
 2429.168873 -477423.7666 -5702.410251
 3302.005254 -477436.4193 -3928.560789
 -1253.679761 -477459.9322 -1520.752521
 -832.5332549 -477459.3334 -1939.882928
 -574.750917 -477458.4716 -2224.595405
 -334.5196404 -477457.8443 -2401.307897
 -108.30404 -477457.5107 -2486.965543
 108.2883496 -477457.5107 -2486.968009
 334.5035489 -477457.8443 -2401.315636
 574.735864 -477458.4716 -2224.611346
 832.5189194 -477459.3333 -1939.903017
 1253.666555 -477459.9322 -1520.776615
 1253.660013 -477459.9322 1520.786784
 832.5134593 -477459.3333 1939.914191
 574.7321917 -477458.4715 2224.621715
 334.5022693 -477457.8442 2401.326614
 108.289231 -477457.5107 2486.978873
 -108.301327 -477457.5107 2486.974987
 -334.5151904 -477457.8443 2401.316581
 -574.7454377 -477458.4716 2224.603867
 -832.5265984 -477459.3334 1939.889602
 -1253.672892 -477459.9322 1520.759368
 3301.999647 -477436.4192 3928.573705
 2429.164556 -477423.7665 5702.423509
 1853.446919 -477416.0403 6508.496211
 1056.916095 -477411.3832 7008.955659
 336.3079363 -477408.764 7254.671652
 -336.3165972 -477408.764 7254.668527
 -1056.926256 -477411.3833 7008.943575
 -1853.457965 -477416.0405 6508.477178
 -2429.177394 -477423.7667 5702.397814
 -3302.011317 -477436.4194 3928.543757
 0 0 0
 5361.026339 -477335.5084 9692.425624
 3707.393877 -477338.5559 10297.06697
 1868.255403 -477332.9414 11029.23103
 580.4396355 -477327.3462 11407.84464
 -580.4470441 -477327.3463 11407.83965
 -1868.262418 -477332.9417 11029.21983
 -3707.402914 -477338.5562 10297.04942
 -5361.037317 -477335.5087 9692.403523
 0 0 -0
 0 0 0
 9448.41306 -477220.9815 11947.11601
 5447.830092 -477264.5825 12677.17388
 2446.981307 -477250.8783 14052.85477
 834.3364575 -477241.1533 14562.16816
 -834.3414938 -477241.1534 14562.16418
 -2446.985619 -477250.8786 14052.84353
 -5447.836244 -477264.5829 12677.15711
 -9448.421632 -477220.9819 11947.09506
 0 0 -0
 0 0 0
 0 0 0
 0 0 0
 3234.761218 -477178.3078 16194.7585
 1238.697413 -477179.6281 16429.8351
 -1238.700845 -477179.6282 16429.83137
 -3234.764268 -477178.3081 16194.74951
 0 0 -0
 0 0 -0
 0 0 -0
 0 0 0
 0 0 0
 0 0 0
 -3330.324466 -477298.4514 -12123.05714
 -1275.907472 -477303.8519 -12299.44265
 1275.882401 -477303.852 -12299.44315
 3330.298543 -477298.4516 -12123.0585
 0 0 -0
 0 0 -0
 0 0 -0
 0 0 0
 -9666.94818 -477282.3568 -8942.777304
 -5627.28107 -477336.4984 -9490.642768
 -2557.996367 -477341.1809 -10522.59251
 -872.8807304 -477338.6418 -10905.52132
 872.8582288 -477338.6418 -10905.52334
 2557.973068 -477341.1809 -10522.59661
 5627.259201 -477336.4984 -9490.653929
 9666.926915 -477282.357 -8942.790919
 0 0 -0
 0 0 0
 -5539.158912 -477376.7234 -7256.233532
 -3854.706768 -477386.163 -7711.285547
 -1962.681683 -477388.4635 -8262.812014
 -612.9444049 -477387.0716 -8548.651713
 612.9250488 -477387.0716 -8548.653107
 1962.661897 -477388.4635 -8262.818942
 3854.68734 -477386.163 -7711.296356
 5539.141036 -477376.7234 -7256.248572
 0 0 -0
 -3399.655005 -477442.8617 -2937.258662
 -2540.393779 -477438.1611 -4268.495708
 -1947.843867 -477435.1338 -4875.470479
 -1118.354391 -477433.7863 -5253.595422
 -357.5083032 -477432.8776 -5439.7504
 357.4916135 -477432.8776 -5439.752887
 1118.338297 -477433.7863 -5253.602479
 1947.828006 -477435.1337 -4875.48459
 2540.378823 -477438.161 -4268.514105
 3399.641198 -477442.8616 -2937.280881
 -1291.573765 -477460.899 -1137.108356
 -871.264115 -477460.997 -1452.076153
 -607.2541505 -477460.7047 -1666.741655
 -355.7005492 -477460.4728 -1800.475377
 -115.6142392 -477460.3417 -1865.493475
 115.6005943 -477460.3417 -1865.49626
 355.6876553 -477460.4727 -1800.485611
 607.2413002 -477460.7046 -1666.758278
 871.2516868 -477460.997 -1452.098582
 1291.562286 -477460.899 -1137.134308
 1291.555834 -477460.899 1137.143195
 871.2459919 -477460.997 1452.107683
 607.2370586 -477460.7046 1666.767847
 355.6861773 -477460.4727 1800.494915
 115.6015603 -477460.3416 1865.505295
 -115.6109877 -477460.3416 1865.50166
 -355.6956289 -477460.4727 1800.482787
 -607.2478425 -477460.7047 1666.747754
 -871.2566003 -477460.997 1452.081279
 -1291.565312 -477460.8991 1137.112391
 3399.635659 -477442.8616 2937.293128
 2540.375353 -477438.1609 4268.526082
 1947.826915 -477435.1336 4875.495475
 1118.339489 -477433.7861 5253.613679
 357.49607 -477432.8775 5439.762856
 -357.5016125 -477432.8775 5439.758124
 -1118.34661 -477433.7863 5253.601449
 -1947.835071 -477435.1338 4875.475904
 -2540.384086 -477438.1611 4268.498931
 -3399.645557 -477442.8617 2937.260102
 0 0 0
 5539.140945 -477376.7233 7256.260111
 3854.688988 -477386.1627 7711.308876
 1962.66686 -477388.4633 8262.83061
 612.9323606 -477387.0714 8548.663792
 -612.9350975 -477387.0715 8548.659317
 -1962.670719 -477388.4635 8262.818277
 -3854.695399 -477386.163 7711.290604
 -5539.14735 -477376.7235 7256.238765
 0 0 -0
 0 0 0
 9666.929138 -477282.3567 8942.802952
 5627.263509 -477336.4981 9490.666116
 2557.980693 -477341.1806 10522.60989
 872.86831 -477338.6416 10905.53436
 -872.8686773 -477338.6417 10905.52901
 -2557.983436 -477341.1809 10522.59777
 -5627.267756 -477336.4984 9490.648608
 -9666.934801 -477282.357 8942.782913
 0 0 -0
 0 0 0
 0 0 0
 0 0 0
 3330.30993 -477298.4511 12123.07252
 1275.894863 -477303.8516 12299.45483
 -1275.893652 -477303.8518 12299.45018
 -3330.309495 -477298.4514 12123.06218
 0 0 -0
 0 0 -0
 0 0 -0
 0 0 0
 0 0 0
 0 0 0
 -3399.10453 -477378.0077 -8399.711172
 -1302.705472 -477386.1636 -8522.03359
 1302.688619 -477386.1636 -8522.034161
 3399.087689 -477378.0078 -8399.712144
 0 0 -0
 0 0 -0
 0 0 -0
 0 0 0
 -9824.166029 -477322.7067 -6196.026971
 -5756.935083 -477384.0012 -6576.049188
 -2638.452458 -477401.0252 -7291.843793
 -900.8636906 -477403.3305 -7557.760352
 900.8470873 -477403.3305 -7557.761229
 2638.436175 -477401.0252 -7291.848499
 5756.918175 -477384.0012 -6576.059626
 9824.150397 -477322.7068 -6196.042201
 0 0 -0
 0 0 0
 -5667.902466 -477403.8816 -5027.924431
 -3961.722636 -477417.6547 -5344.064529
 -2031.649539 -477425.324 -5727.453549
 -636.7566952 -477426.7942 -5926.383029
 636.7410928 -477426.7942 -5926.385189
 2031.633444 -477425.324 -5727.459989
 3961.707361 -477417.6547 -5344.078222
 5667.887695 -477403.8816 -5027.941361
 0 0 -0
 -3469.936155 -477447.0603 -2033.581026
 -2621.019377 -477447.647 -2957.356749
 -2016.798552 -477447.7818 -3379.272979
 -1163.544231 -477448.6875 -3642.565273
 -373.1592213 -477448.9515 -3772.370577
 373.1447959 -477448.9515 -3772.372603
 1163.530855 -477448.6874 -3642.574859
 2016.78551 -477447.7817 -3379.287998
 2621.006432 -477447.6469 -2957.377499
 3469.924514 -477447.0603 -2033.605724
 -1318.889314 -477461.5293 -787.3008977
 -899.4045057 -477462.093 -1006.026124
 -631.0833019 -477462.1851 -1155.352433
 -371.3502377 -477462.2231 -1248.560195
 -121.0398472 -477462.2313 -1293.946118
 121.029139 -477462.2313 -1293.950087
 371.3402689 -477462.2231 -1248.571801
 631.073326 -477462.1851 -1155.3707
 899.3952751 -477462.093 -1006.050074
 1318.879654 -477461.5293 -787.3280125
 1318.871961 -477461.5293 787.3346778
 899.3885053 -477462.093 1006.056433
 631.0688619 -477462.185 1155.377299
 371.338214 -477462.2231 1248.5791
 121.0298122 -477462.2313 1293.956951
 -121.0365883 -477462.2313 1293.952678
 -371.3445286 -477462.2231 1248.565726
 -631.0758198 -477462.1851 1155.357288
 -899.3959435 -477462.093 1006.029643
 -1318.879777 -477461.5293 787.3030615
 3469.918078 -477447.0603 2033.615055
 2621.002492 -477447.6469 2957.385968
 2016.783591 -477447.7817 3379.296725
 1163.531984 -477448.6874 3642.583627
 373.1487938 -477448.9514 3772.380963
 -373.1527596 -477448.9514 3772.376649
 -1163.535637 -477448.6875 3642.570183
 -2016.788552 -477447.7818 3379.276832
 -2621.00862 -477447.647 2957.35919
 -3469.925586 -477447.0604 2033.580734
 0 0 0
 5667.886265 -477403.8815 5027.949984
 3961.707682 -477417.6546 5344.087483
 2031.636964 -477425.3238 5727.4708
 636.7475581 -477426.7941 5926.394294
 -636.7476882 -477426.7941 5926.389378
 -2031.638914 -477425.324 5727.458031
 -3961.711285 -477417.6547 5344.069379
 -5667.890376 -477403.8817 5027.928774
 0 0 -0
 0 0 0
 9824.149959 -477322.7067 6196.050913
 5756.919727 -477384.0011 6576.070264
 2638.441223 -477401.025 7291.860468
 900.8550424 -477403.3304 7557.771451
 -900.8537228 -477403.3304 7557.76682
 -2638.441254 -477401.0252 7291.848212
 -5756.922815 -477384.0013 6576.053952
 -9824.153572 -477322.7069 6196.032551
 0 0 -0
 0 0 0
 0 0 0
 0 0 0
 3399.095177 -477378.0075 8399.725489
 1302.697656 -477386.1634 8522.045184