# OOMMF OVF 2.0
#
# Segment count: 1
#
# Begin: Segment
# Begin: Header
#
# Title: Oxs_MinDriver::Magnetization
# Desc: Oxs vector field output
# Desc:  MIF source file: F:/Bogdan/UNIC/2022/Master_degree/Samples/Cylinder11_7.mif
# Desc:  Iteration: 845, State id: 12525
# Desc:  Stage: 2, Stage iteration: 24
# Desc:  Stage simulation time: 0 s
# Desc:  Total simulation time: -2 s
# meshunit: m
# meshtype: rectangular
# xbase: -2.5000000000000001e-09
# ybase: -2.5000000000000001e-09
# zbase: -6.4999999999999995e-09
# xnodes: 6
# ynodes: 6
# znodes: 14
# xstepsize: 1.0000000000000001e-09
# ystepsize: 1.0000000000000001e-09
# zstepsize: 1.0000000000000001e-09
# xmin: -3e-09
# ymin: -3e-09
# zmin: -6.9999999999999998e-09
# xmax: 3.0000000000000008e-09
# ymax: 3.0000000000000008e-09
# zmax: 7.0000000000000015e-09
# valuedim: 3
# valuelabels: Magnetization_x Magnetization_y Magnetization_z
# valueunits: A/m A/m A/m
#
# End: Header
#
# Begin: Data Text
 0 0 0
 2021.907108 3819.63748 477444.4403
 765.6481803 3905.296622 477447.4146
 -765.6457828 3905.296614 477447.4146
 -2021.90471 3819.637482 477444.4403
 0 0 -0
 3819.616508 2021.928063 477444.4404
 2496.853865 2496.874874 477450.9426
 872.2551172 2634.591964 477455.9345
 -872.2527308 2634.591982 477455.9345
 -2496.851493 2496.874864 477450.9427
 -3819.614141 2021.928066 477444.4404
 3905.275618 765.6691856 477447.4148
 2634.570932 872.2761537 477455.9346
 919.4680437 919.4891119 477462.2293
 -919.4656937 919.4890924 477462.2293
 -2634.56858 872.2761663 477455.9346
 -3905.273272 765.6691853 477447.4148
 3905.275578 -765.6247507 477447.4148
 2634.570907 -872.231687 477455.9347
 919.4679989 -919.4446186 477462.2294
 -919.4656832 -919.4445981 477462.2294
 -2634.56859 -872.2316942 477455.9347
 -3905.273261 -765.6247446 477447.4149
 3819.616406 -2021.88369 477444.4406
 2496.853771 -2496.830448 477450.9429
 872.2550703 -2634.547524 477455.9347
 -872.2527858 -2634.547539 477455.9348
 -2496.851493 -2496.830437 477450.9429
 -3819.614109 -2021.883687 477444.4406
 0 0 0
 2021.906973 -3819.593103 477444.4406
 765.6480757 -3905.252251 477447.415
 -765.6458201 -3905.252243 477447.415
 -2021.904715 -3819.593101 477444.4406
 0 0 -0
 0 0 0
 1615.069779 3058.228813 477451.4741
 628.6786291 3129.869542 477453.3275
 -628.6763515 3129.869556 477453.3275
 -1615.067514 3058.228801 477451.4741
 0 0 -0
 3058.207945 1615.090624 477451.4741
 2042.248653 2042.269524 477455.2646
 726.1799115 2179.094764 477458.4752
 -726.177665 2179.094724 477458.4752
 -2042.24639 2042.269546 477455.2646
 -3058.205707 1615.090617 477451.4741
 3129.848667 628.6995148 477453.3276
 2179.073824 726.2008361 477458.4752
 772.8171192 772.8380598 477462.7491
 -772.8148881 772.8381052 477462.7491
 -2179.071604 726.2008116 477458.4752
 -3129.846448 628.6995218 477453.3277
 3129.848621 -628.6554379 477453.3277
 2179.073783 -726.1567222 477458.4753
 772.8171349 -772.7939348 477462.7492
 -772.8149437 -772.7939774 477462.7492
 -2179.071592 -726.1566977 477458.4753
 -3129.846428 -628.65544 477453.3277
 3058.207835 -1615.046599 477451.4743
 2042.248577 -2042.225466 477455.2647
 726.1798117 -2179.050676 477458.4754
 -726.1776593 -2179.050642 477458.4754
 -2042.246404 -2042.22548 477455.2648
 -3058.205666 -1615.046591 477451.4743
 0 0 0
 1615.069631 -3058.184774 477451.4743
 628.6785466 -3129.825527 477453.3278
 -628.6764062 -3129.825537 477453.3278
 -1615.067499 -3058.184767 477451.4743
 0 0 -0
 0 0 0
 1182.639156 2236.475934 477457.2974
 465.2751673 2288.148127 477458.2905
 -465.2731384 2288.148112 477458.2905
 -1182.63712 2236.475936 477457.2974
 0 0 -0
 2236.45522 1182.659845 477457.2974
 1507.019982 1507.040757 477459.2433
 541.2064414 1616.314952 477460.9575
 -541.2044122 1616.314984 477460.9575
 -1507.017985 1507.040732 477459.2433
 -2236.453216 1182.659848 477457.2975
 2288.127364 465.2959284 477458.2906
 1616.294214 541.2271776 477460.9575
 579.4321003 579.4529331 477463.2968
 -579.4301182 579.4528913 477463.2968
 -1616.292223 541.2272039 477460.9575
 -2288.125384 465.29592 477458.2906
 2288.127334 -465.2523689 477458.2906
 1616.294155 -541.1836093 477460.9576
 579.432093 -579.4093411 477463.2969
 -579.4301353 -579.4093058 477463.2969
 -1616.292196 -541.1836277 477460.9576
 -2288.125379 -465.2523601 477458.2907
 2236.4551 -1182.61634 477457.2975
 1507.019907 -1506.997205 477459.2434
 541.206374 -1616.271411 477460.9576
 -541.2044368 -1616.27143 477460.9576
 -1507.017988 -1506.997192 477459.2434
 -2236.453156 -1182.616338 477457.2976
 0 0 0
 1182.639009 -2236.43241 477457.2976
 465.2750729 -2288.104616 477458.2907
 -465.2731666 -2288.104611 477458.2907
 -1182.637095 -2236.432408 477457.2976
 0 0 -0
 0 0 0
 814.0157163 1537.76384 477460.8298
 321.4315493 1571.786727 477461.3047
 -321.4298498 1571.786736 477461.3047
 -814.0140279 1537.763827 477460.8298
 0 0 -0
 1537.743216 814.036313 477460.8298
 1039.021916 1039.042497 477461.7389
 374.5972913 1115.810272 477462.5493
 -374.5956224 1115.810241 477462.5493
 -1039.020234 1039.042521 477461.7389
 -1537.741555 814.0363031 477460.8298
 1571.766111 321.452154 477461.3047
 1115.789572 374.6180018 477462.5493
 401.8877615 401.908367 477463.6617
 -401.8860997 401.9084079 477463.6617
 -1115.787926 374.6179673 477462.5493
 -1571.764463 321.4521687 477461.3047
 1571.76605 -321.4091686 477461.3048
 1115.789593 -374.5749982 477462.5493
 401.8876669 -401.8653693 477463.6617
 -401.8860392 -401.8653975 477463.6617
 -1115.787965 -374.574971 477462.5493
 -1571.764421 -321.4091764 477461.3048
 1537.74311 -813.9933663 477460.8299
 1039.021793 -1038.999537 477461.739
 374.5972874 -1115.767284 477462.5494
 -374.5956866 -1115.767274 477462.5494
 -1039.020182 -1038.999545 477461.739
 -1537.7415 -813.9933574 477460.8299
 0 0 0
 814.0155859 -1537.72086 477460.8299
 321.4314446 -1571.743791 477461.3048
 -321.429851 -1571.743788 477461.3048
 -814.013998 -1537.720859 477460.8299
 0 0 -0
 0 0 0
 520.8944267 983.6173063 477462.7027
 205.9338802 1004.379797 477462.8992
 -205.9326089 1004.379793 477462.8992
 -520.8931559 983.6173088 477462.7027
 0 0 -0
 983.5967518 520.9149516 477462.7027
 664.8383989 664.8590004 477463.0742
 239.9730984 713.8614276 477463.406
 -239.9718342 713.8614407 477463.406
 -664.8371437 664.8589846 477463.0742
 -983.5955044 520.9149587 477462.7027
 1004.359206 205.9544832 477462.8992
 713.840866 239.9936369 477463.4061
 257.508913 257.5295908 477463.8611
 -257.5076752 257.5295697 477463.8611
 -713.8396251 239.9936642 477463.4061
 -1004.357973 205.9544733 477462.8992
 1004.359176 -205.9120148 477462.8992
 713.8407767 -239.9511675 477463.4061
 257.5090017 -257.4871126 477463.8611
 -257.5077779 -257.4870999 477463.8611
 -713.8395594 -239.9511838 477463.4061
 -1004.357959 -205.9119998 477462.8993
 983.5966303 -520.8725225 477462.7028
 664.8383618 -664.8165417 477463.0743
 239.9729679 -713.818981 477463.4061
 -239.9717645 -713.8189779 477463.4061
 -664.837154 -664.8165333 477463.0743
 -983.5954217 -520.8725216 477462.7028
 0 0 0
 520.8942809 -983.5748495 477462.7028
 205.9338354 -1004.33736 477462.8993
 -205.932642 -1004.337364 477462.8993
 -520.8930894 -983.574846 477462.7028
 0 0 -0
 0 0 0
 287.9413186 543.6903553 477463.6036
 113.8761114 554.7547802 477463.6641
 -113.875316 554.7547761 477463.6641
 -287.9405309 543.690356 477463.6036
 0 0 -0
 543.6697506 287.9619006 477463.6036
 367.3773663 367.3979642 477463.7173
 132.628655 394.2949293 477463.8188
 -132.6278779 394.2949341 477463.8188
 -367.3765756 367.3979692 477463.7173
 -543.6689821 287.9619022 477463.6036
 554.7341603 113.896722 477463.6642
 394.2742799 132.6493225 477463.8188
 142.273984 142.2945967 477463.9576
 -142.2732098 142.2946005 477463.9576
 -394.2735207 132.649317 477463.8188
 -554.7333913 113.8967328 477463.6642
 554.7341148 -113.8546464 477463.6642
 394.2742849 -132.6072476 477463.8188
 142.2738935 -142.2525229 477463.9576
 -142.2731376 -142.2525175 477463.9576
 -394.2735346 -132.6072395 477463.8188
 -554.733357 -113.854646 477463.6642
 543.6696462 -287.9198626 477463.6037
 367.3772613 -367.3559022 477463.7173
 132.6286749 -394.252867 477463.8188
 -132.6279349 -394.2528785 477463.8188
 -367.3765109 -367.3558962 477463.7173
 -543.6689047 -287.9198561 477463.6037
 0 0 0
 287.9412062 -543.6482828 477463.6037
 113.876022 -554.7127405 477463.6642
 -113.8752849 -554.7127318 477463.6642
 -287.9404732 -543.6482845 477463.6037
 0 0 -0
 0 0 0
 91.88421637 173.5122471 477463.9596
 36.34144049 176.9748657 477463.9658
 -36.34116415 176.9748725 477463.9658
 -91.88393019 173.5122467 477463.9596
 0 0 -0
 173.4915003 91.90494001 477463.9596
 117.2047354 117.225504 477463.9712
 42.31086724 125.7686387 477463.9816
 -42.31058431 125.7686321 477463.9816
 -117.2044848 117.2255124 477463.9712
 -173.4912234 91.90494489 477463.9596
 176.9540992 36.36221856 477463.9658
 125.7478607 42.33163768 477463.9816
 45.37568504 45.39649206 477463.9957
 -45.37542746 45.39649354 477463.9957
 -125.7475854 42.33164352 477463.9816
 -176.9538455 36.36222263 477463.9658
 176.9540585 -36.32035462 477463.9658
 125.7478238 -42.28977545 477463.9816
 45.37569851 -45.35463014 477463.9957
 -45.37545018 -45.35463124 477463.9957
 -125.7475607 -42.28977149 477463.9816
 -176.9538125 -36.32034707 477463.9658
 173.4913934 -91.86311264 477463.9596
 117.2046726 -117.1836541 477463.9712
 42.31080737 -125.7267931 477463.9816
 -42.31055619 -125.7267809 477463.9816
 -117.2044484 -117.1836557 477463.9712
 -173.4911376 -91.8631064 477463.9596
 0 0 0
 91.88409616 -173.470386 477463.9596
 36.34139164 -176.9330322 477463.9658
 -36.34115832 -176.9330393 477463.9658
 -91.88385312 -173.4703799 477463.9596
 0 0 -0
 0 0 0
 -91.88409618 -173.4703859 477463.9596
 -36.34139166 -176.9330322 477463.9658
 36.3411583 -176.9330394 477463.9658
 91.88385311 -173.47038 477463.9596
 0 0 -0
 -173.4913934 -91.86311262 477463.9596
 -117.2046726 -117.183654 477463.9712
 -42.31080737 -125.7267931 477463.9816
 42.31055619 -125.7267809 477463.9816
 117.2044484 -117.1836557 477463.9712
 173.4911376 -91.86310641 477463.9596
 -176.9540585 -36.32035461 477463.9658
 -125.7478238 -42.28977545 477463.9816
 -45.3756985 -45.35463013 477463.9957
 45.37545016 -45.35463126 477463.9957
 125.7475607 -42.28977149 477463.9816
 176.9538125 -36.32034708 477463.9658
 -176.9540992 36.36221856 477463.9658
 -125.7478607 42.33163769 477463.9816
 -45.37568507 45.39649205 477463.9957
 45.37542747 45.39649356 477463.9957
 125.7475854 42.33164352 477463.9816
 176.9538455 36.36222264 477463.9658
 -173.4915003 91.90494 477463.9596
 -117.2047354 117.225504 477463.9712
 -42.31086725 125.7686387 477463.9816
 42.3105843 125.7686321 477463.9816
 117.2044848 117.2255124 477463.9712
 173.4912235 91.9049449 477463.9596
 0 0 0
 -91.88421637 173.5122471 477463.9596
 -36.3414405 176.9748657 477463.9658
 36.34116416 176.9748725 477463.9658
 91.88393019 173.5122467 477463.9596
 0 0 -0
 0 0 0
 -287.9412062 -543.6482828 477463.6037
 -113.876022 -554.7127405 477463.6642
 113.8752849 -554.7127318 477463.6642
 287.9404732 -543.6482845 477463.6037
 0 0 -0
 -543.6696462 -287.9198626 477463.6037
 -367.3772613 -367.3559022 477463.7173
 -132.6286749 -394.252867 477463.8188
 132.6279349 -394.2528785 477463.8188
 367.3765109 -367.3558962 477463.7173
 543.6689046 -287.9198561 477463.6037
 -554.7341148 -113.8546464 477463.6642
 -394.2742849 -132.6072476 477463.8188
 -142.2738935 -142.252523 477463.9576
 142.2731376 -142.2525175 477463.9576
 394.2735346 -132.6072395 477463.8188
 554.733357 -113.854646 477463.6642
 -554.7341603 113.896722 477463.6642
 -394.27428 132.6493225 477463.8188
 -142.273984 142.2945968 477463.9576
 142.2732098 142.2946004 477463.9576
 394.2735207 132.649317 477463.8188
 554.7333913 113.8967328 477463.6642
 -543.6697506 287.9619006 477463.6036
 -367.3773663 367.3979642 477463.7173
 -132.628655 394.2949293 477463.8188
 132.6278779 394.2949341 477463.8188
 367.3765756 367.3979692 477463.7173
 543.6689821 287.9619023 477463.6036
 0 0 0
 -287.9413186 543.6903553 477463.6036
 -113.8761114 554.7547802 477463.6641
 113.875316 554.7547761 477463.6641
 287.9405309 543.6903561 477463.6036
 0 0 -0
 0 0 0
 -520.8942809 -983.5748495 477462.7028
 -205.9338354 -1004.33736 477462.8993
 205.932642 -1004.337364 477462.8993
 520.8930894 -983.574846 477462.7028
 0 0 -0
 -983.5966304 -520.8725225 477462.7028
 -664.8383618 -664.8165416 477463.0743
 -239.9729679 -713.818981 477463.4061
 239.9717645 -713.8189778 477463.4061
 664.837154 -664.8165334 477463.0743
 983.5954216 -520.8725216 477462.7028
 -1004.359176 -205.9120147 477462.8992
 -713.8407767 -239.9511676 477463.4061
 -257.5090017 -257.4871125 477463.8611
 257.5077779 -257.4871 477463.8611
 713.8395594 -239.9511838 477463.4061
 1004.357959 -205.9119998 477462.8993
 -1004.359206 205.9544832 477462.8992
 -713.840866 239.9936369 477463.4061
 -257.508913 257.5295908 477463.8611
 257.5076752 257.5295697 477463.8611
 713.8396251 239.9936642 477463.4061
 1004.357973 205.9544733 477462.8992
 -983.5967518 520.9149516 477462.7027
 -664.8383989 664.8590004 477463.0742
 -239.9730984 713.8614276 477463.406
 239.9718342 713.8614406 477463.406
 664.8371437 664.8589846 477463.0742
 983.5955044 520.9149587 477462.7027
 0 0 0
 -520.8944267 983.6173063 477462.7027
 -205.9338802 1004.379797 477462.8992
 205.9326089 1004.379793 477462.8992
 520.8931559 983.6173088 477462.7027
 0 0 -0
 0 0 0
 -814.015586 -1537.72086 477460.8299
 -321.4314446 -1571.743791 477461.3048
 321.429851 -1571.743788 477461.3048
 814.013998 -1537.720859 477460.8299
 0 0 -0
 -1537.74311 -813.9933663 477460.8299
 -1039.021793 -1038.999537 477461.739
 -374.5972874 -1115.767283 477462.5494
 374.5956866 -1115.767274 477462.5494
 1039.020182 -1038.999545 477461.739
 1537.7415 -813.9933574 477460.8299
 -1571.76605 -321.4091686 477461.3048
 -1115.789593 -374.5749981 477462.5493
 -401.8876669 -401.8653694 477463.6617
 401.8860392 -401.8653974 477463.6617
 1115.787965 -374.5749711 477462.5493
 1571.764421 -321.4091764 477461.3048
 -1571.766111 321.4521541 477461.3047
 -1115.789572 374.6180018 477462.5493
 -401.8877615 401.9083671 477463.6617
 401.8860997 401.9084078 477463.6617
 1115.787926 374.6179674 477462.5493
 1571.764463 321.4521687 477461.3047
 -1537.743216 814.036313 477460.8298
 -1039.021916 1039.042497 477461.7389
 -374.5972913 1115.810272 477462.5493
 374.5956224 1115.810241 477462.5493
 1039.020234 1039.042521 477461.7389
 1537.741555 814.0363031 477460.8298
 0 0 0
 -814.0157163 1537.76384 477460.8298
 -321.4315493 1571.786727 477461.3047
 321.4298498 1571.786736 477461.3047
 814.0140279 1537.763827 477460.8298
 0 0 -0
 0 0 0
 -1182.639009 -2236.43241 477457.2976
 -465.2750729 -2288.104616 477458.2907
 465.2731666 -2288.104611 477458.2907
 1182.637095 -2236.432408 477457.2976
 0 0 -0
 -2236.4551 -1182.61634 477457.2975
 -1507.019907 -1506.997205 477459.2434
 -541.206374 -1616.271411 477460.9576
 541.2044368 -1616.27143 477460.9576
 1507.017988 -1506.997192 477459.2434
 2236.453156 -1182.616338 477457.2976
 -2288.127334 -465.2523688 477458.2906
 -1616.294155 -541.1836093 477460.9576
 -579.432093 -579.4093409 477463.2969
 579.4301353 -579.4093059 477463.2969
 1616.292196 -541.1836276 477460.9576
 2288.125379 -465.2523601 477458.2907
 -2288.127364 465.2959284 477458.2906
 -1616.294214 541.2271777 477460.9575
 -579.4321003 579.452933 477463.2968
 579.4301182 579.4528915 477463.2968
 1616.292223 541.2272038 477460.9575
 2288.125384 465.2959201 477458.2906
 -2236.45522 1182.659845 477457.2974
 -1507.019982 1507.040757 477459.2433
 -541.2064414 1616.314952 477460.9575
 541.2044122 1616.314984 477460.9575
 1507.017985 1507.040732 477459.2433
 2236.453216 1182.659848 477457.2975
 0 0 0
 -1182.639156 2236.475934 477457.2974
 -465.2751673 2288.148127 477458.2905
 465.2731384 2288.148112 477458.2905
 1182.63712 2236.475936 477457.2974
 0 0 -0
 0 0 0
 -1615.069631 -3058.184774 477451.4743
 -628.6785466 -3129.825527 477453.3278
 628.6764062 -3129.825537 477453.3278
 1615.067499 -3058.184767 477451.4743
 0 0 -0
 -3058.207835 -1615.046599 477451.4743
 -2042.248577 -2042.225466 477455.2647
 -726.1798117 -2179.050676 477458.4754
 726.1776594 -2179.050642 477458.4754
 2042.246404 -2042.22548 477455.2648
 3058.205666 -1615.046591 477451.4743
 -3129.848621 -628.6554379 477453.3277
 -2179.073783 -726.1567222 477458.4753
 -772.8171349 -772.7939349 477462.7492
 772.8149437 -772.7939773 477462.7492
 2179.071592 -726.1566977 477458.4753
 3129.846428 -628.6554399 477453.3277
 -3129.848667 628.6995148 477453.3276
 -2179.073824 726.2008361 477458.4752
 -772.8171192 772.8380599 477462.7491
 772.8148881 772.8381051 477462.7491
 2179.071604 726.2008117 477458.4752
 3129.846448 628.6995218 477453.3277
 -3058.207945 1615.090624 477451.4741
 -2042.248653 2042.269524 477455.2646
 -726.1799115 2179.094764 477458.4752
 726.177665 2179.094724 477458.4752
 2042.24639 2042.269546 477455.2646
 3058.205707 1615.090617 477451.4741
 0 0 0
 -1615.069779 3058.228813 477451.4741
 -628.6786291 3129.869542 477453.3275
 628.6763515 3129.869556 477453.3275
 1615.067514 3058.228801 477451.4741
 0 0 -0
 0 0 0
 -2021.906973 -3819.593103 477444.4406
 -765.6480757 -3905.252251 477447.415
 765.6458201 -3905.252243 477447.415
 2021.904715 -3819.593101 477444.4406
 0 0 -0
 -3819.616406 -2021.88369 477444.4406
 -2496.853771 -2496.830448 477450.9429
 -872.2550703 -2634.547524 477455.9347
 872.2527858 -2634.547539 477455.9348
 2496.851493 -2496.830437 477450.9429
 3819.614109 -2021.883686 477444.4406
 -3905.275578 -765.6247507 477447.4148
 -2634.570907 -872.231687 477455.9347
 -919.4679989 -919.4446185 477462.2294
 919.4656832 -919.4445981 477462.2294
 2634.56859 -872.2316942 477455.9347
 3905.273261 -765.6247446 477447.4149
 -3905.275618 765.6691856 477447.4148
 -2634.570932 872.2761538 477455.9346
 -919.4680437 919.4891119 477462.2293
 919.4656937 919.4890925 477462.2293
 2634.56858 872.2761663 477455.9346
 3905.273272 765.6691854 477447.4148
 -3819.616508 2021.928063 477444.4404
 -2496.853865 2496.874874 477450.9426
 -872.2551172 2634.591964 477455.9345
 872.2527308 2634.591982 477455.9345
 2496.851493 2496.874864 477450.9427
 3819.614141 2021.928066 477444.4404
 0 0 0
 -2021.907108 3819.63748 477444.4403
 -765.6481803 3905.296622 477447.4146
 765.6457828 3905.296614 477447.4146
 2021.90471 3819.637482 477444.4403
 0 0 -0
# End: Data Text
# End: Segment
