# OOMMF OVF 2.0
#
# Segment count: 1
#
# Begin: Segment
# Begin: Header
#
# Title: Oxs_MinDriver::Magnetization
# Desc: Oxs vector field output
# Desc:  MIF source file: F:/Bogdan/UNIC/2022/Master_degree/Samples/Cylinder0_5000 1.mif
# Desc:  Iteration: 904, State id: 10959
# Desc:  Stage: 3, Stage iteration: 45
# Desc:  Stage simulation time: 0 s
# Desc:  Total simulation time: -2 s
# meshunit: m
# meshtype: rectangular
# xbase: -8.9999999999999995e-09
# ybase: -8.9999999999999995e-09
# zbase: -2.0999999999999999e-08
# xnodes: 10
# ynodes: 10
# znodes: 22
# xstepsize: 2.0000000000000001e-09
# ystepsize: 2.0000000000000001e-09
# zstepsize: 2.0000000000000001e-09
# xmin: -1e-08
# ymin: -1e-08
# zmin: -2.1999999999999998e-08
# xmax: 1e-08
# ymax: 1e-08
# zmax: 2.2000000000000005e-08
# valuedim: 3
# valuelabels: Magnetization_x Magnetization_y Magnetization_z
# valueunits: A/m A/m A/m
#
# End: Header
#
# Begin: Data Text
 0 0 0
 0 0 0
 0 0 0
 8686.259507 32917.98856 476248.7021
 3276.063799 33150.79802 476300.4968
 -3276.063773 33150.79801 476300.4968
 -8686.259481 32917.98856 476248.7021
 0 0 -0
 0 0 -0
 0 0 -0
 0 0 0
 24437.6066 24437.60485 476211.5897
 19450.56071 25489.80907 476386.2053
 11506.92213 27711.15614 476520.2555
 3891.03428 28324.98343 476607.2035
 -3891.034254 28324.98344 476607.2035
 -11506.9221 27711.15613 476520.2555
 -19450.56068 25489.80907 476386.2053
 -24437.60657 24437.60484 476211.5897
 0 0 -0
 0 0 0
 25489.81084 19450.55892 476386.2053
 20101.3968 20101.39502 476616.9731
 12476.30617 20990.84012 476839.1738
 4222.077704 21389.44431 476965.9705
 -4222.077676 21389.44428 476965.9705
 -12476.30614 20990.84014 476839.1738
 -20101.39677 20101.395 476616.9731
 -25489.81081 19450.55893 476386.2053
 0 0 -0
 32917.99033 8686.257734 476248.702
 27711.15792 11506.92034 476520.2554
 20990.84193 12476.30435 476839.1738
 13010.29111 13010.28929 477109.3543
 4401.413954 13248.84407 477259.8527
 -4401.413928 13248.84411 477259.8527
 -13010.29107 13010.28926 477109.3543
 -20990.84191 12476.30437 476839.1738
 -27711.15789 11506.92033 476520.2554
 -32917.9903 8686.257736 476248.702
 33150.79979 3276.062017 476300.4967
 28324.98522 3891.032472 476607.2034
 21389.44612 4222.075896 476965.9704
 13248.84591 4401.412114 477259.8526
 4481.380137 4481.378303 477421.9368
 -4481.380108 4481.378267 477421.9368
 -13248.84588 4401.412145 477259.8526
 -21389.44609 4222.075872 476965.9705
 -28324.9852 3891.032486 476607.2034
 -33150.79976 3276.062012 476300.4967
 33150.79979 -3276.065564 476300.4967
 28324.98524 -3891.03605 476607.2034
 21389.44609 -4222.079504 476965.9704
 13248.84594 -4401.415751 477259.8526
 4481.380103 -4481.38195 477421.9368
 -4481.380077 -4481.381918 477421.9368
 -13248.84591 -4401.41578 477259.8526
 -21389.44607 -4222.079483 476965.9704
 -28324.98521 -3891.036064 476607.2034
 -33150.79976 -3276.06556 476300.4967
 32917.99034 -8686.261262 476248.7019
 27711.15792 -11506.9239 476520.2553
 20990.84196 -12476.30795 476839.1737
 13010.29108 -13010.2929 477109.3542
 4401.413985 -13248.84771 477259.8526
 -4401.413956 -13248.84774 477259.8526
 -13010.29105 -13010.29288 477109.3542
 -20990.84193 -12476.30797 476839.1737
 -27711.15789 -11506.92389 476520.2553
 -32917.99031 -8686.261265 476248.7019
 0 0 0
 25489.81086 -19450.56248 476386.2052
 20101.3968 -20101.39858 476616.973
 12476.30619 -20990.84371 476839.1737
 4222.077682 -21389.44791 476965.9704
 -4222.077655 -21389.44789 476965.9704
 -12476.30616 -20990.84373 476839.1737
 -20101.39677 -20101.39857 476616.973
 -25489.81083 -19450.56248 476386.2052
 0 0 -0
 0 0 0
 24437.60663 -24437.60837 476211.5895
 19450.56073 -25489.8126 476386.2051
 11506.92212 -27711.15969 476520.2553
 3891.034296 -28324.98699 476607.2033
 -3891.034268 -28324.987 476607.2033
 -11506.92209 -27711.15968 476520.2553
 -19450.5607 -25489.8126 476386.2051
 -24437.60661 -24437.60836 476211.5895
 0 0 -0
 0 0 0
 0 0 0
 0 0 0
 8686.25952 -32917.99208 476248.7018
 3276.063799 -33150.80154 476300.4966
 -3276.063772 -33150.80154 476300.4966
 -8686.259493 -32917.99209 476248.7018
 0 0 -0
 0 0 -0
 0 0 -0
 0 0 0
 0 0 0
 0 0 0
 7300.037912 28526.17897 476555.1782
 2812.542541 28740.6153 476589.9054
 -2812.542516 28740.61532 476589.9054
 -7300.037886 28526.17896 476555.1782
 0 0 -0
 0 0 -0
 0 0 -0
 0 0 0
 21140.87442 21140.87271 476527.0173
 17041.11483 22129.33819 476646.3722
 10057.07718 24357.15206 476736.2537
 3420.857411 25045.85674 476794.373
 -3420.857384 25045.85669 476794.373
 -10057.07715 24357.1521 476736.2537
 -17041.1148 22129.33817 476646.3722
 -21140.8744 21140.87272 476527.0173
 0 0 -0
 0 0 0
 22129.3399 17041.1131 476646.3721
 17772.98565 17772.98388 476801.9645
 11121.8303 18732.39921 476966.7425
 3779.39858 19183.77669 477063.4865
 -3779.398557 19183.77678 477063.4865
 -11121.83027 18732.39915 476966.7425
 -17772.98563 17772.98393 476801.9645
 -22129.33987 17041.11308 476646.3721
 0 0 -0
 28526.18069 7300.036192 476555.1781
 24357.15381 10057.07541 476736.2537
 18732.40095 11121.82857 476966.7424
 11712.84734 11712.84554 477176.5813
 3978.04764 11980.32653 477297.0964
 -3978.04761 11980.32643 477297.0964
 -11712.84732 11712.84562 477176.5813
 -18732.40091 11121.82851 476966.7424
 -24357.15379 10057.07545 476736.2537
 -28526.18067 7300.036184 476555.1781
 28740.61703 2812.540796 476589.9053
 25045.85848 3420.855682 476794.3729
 19183.77847 3779.396781 477063.4864
 11980.32829 3978.045888 477297.0963
 4067.238197 4067.236394 477429.3523
 -4067.238175 4067.236494 477429.3523
 -11980.32825 3978.045799 477297.0963
 -19183.77846 3779.396848 477063.4864
 -25045.85844 3420.855641 476794.3729
 -28740.61701 2812.540808 476589.9053
 28740.61705 -2812.544251 476589.9053
 25045.85843 -3420.859159 476794.3729
 19183.77854 -3779.400298 477063.4864
 11980.3282 -3978.049418 477297.0963
 4067.238286 -4067.239949 477429.3523
 -4067.238255 -4067.240039 477429.3523
 -11980.32819 -3978.049339 477297.0963
 -19183.7785 -3779.400359 477063.4864
 -25045.85842 -3420.859123 476794.3729
 -28740.61702 -2812.544263 476589.9053
 28526.1807 -7300.039627 476555.1781
 24357.15385 -10057.07889 476736.2536
 18732.40089 -11121.83205 476966.7423
 11712.84741 -11712.84907 477176.5812
 3978.047562 -11980.33004 477297.0963
 -3978.047539 -11980.32997 477297.0963
 -11712.84738 -11712.84914 477176.5812
 -18732.40088 -11121.83201 476966.7423
 -24357.15382 -10057.07892 476736.2536
 -28526.18067 -7300.039621 476555.1781
 0 0 0
 22129.33991 -17041.11656 476646.372
 17772.9857 -17772.98737 476801.9643
 11121.83025 -18732.40269 476966.7423
 3779.398642 -19183.78022 477063.4864
 -3779.398613 -19183.78027 477063.4864
 -11121.83023 -18732.40265 476966.7423
 -17772.98567 -17772.9874 476801.9643
 -22129.33988 -17041.11655 476646.372
 0 0 -0
 0 0 0
 21140.87447 -21140.87615 476527.0172
 17041.11483 -22129.34162 476646.372
 10057.07721 -24357.15553 476736.2536
 3420.857378 -25045.86019 476794.3728
 -3420.857353 -25045.86017 476794.3728
 -10057.07718 -24357.15555 476736.2536
 -17041.11481 -22129.34161 476646.372
 -21140.87444 -21140.87615 476527.0172
 0 0 -0
 0 0 0
 0 0 0
 0 0 0
 7300.037918 -28526.18241 476555.178
 2812.542557 -28740.61875 476589.9052
 -2812.54253 -28740.61875 476589.9052
 -7300.037892 -28526.1824 476555.178
 0 0 -0
 0 0 -0
 0 0 -0
 0 0 0
 0 0 0
 0 0 0
 5835.397785 23224.82491 476863.1113
 2261.533539 23405.44344 476884.6212
 -2261.533515 23405.44341 476884.6212
 -5835.397763 23224.82492 476863.1113
 0 0 -0
 0 0 -0
 0 0 -0
 0 0 0
 17205.48832 17205.48669 476843.5946
 13938.57604 18044.29291 476919.2708
 8213.440939 19970.74864 476975.45
 2799.280375 20608.42655 477010.826
 -2799.280353 20608.42663 477010.826
 -8213.440909 19970.74858 476975.45
 -13938.57603 18044.29294 476919.2708
 -17205.4883 17205.48668 476843.5946
 0 0 -0
 0 0 0
 18044.29458 13938.57437 476919.2708
 14624.969 14624.96736 477015.8193
 9208.703378 15526.69713 477122.6182
 3140.076194 15970.36041 477186.5032
 -3140.076165 15970.36029 477186.5032
 -9208.703366 15526.69723 477122.6182
 -14624.96897 14624.9673 477015.8194
 -18044.29456 13938.57439 476919.2708
 0 0 -0
 23224.82658 5835.396124 476863.1113
 19970.75029 8213.439299 476975.4499
 15526.69885 9208.701647 477122.6181
 9787.554877 9787.553229 477263.3224
 3337.823155 10057.77739 477346.3851
 -3337.823137 10057.77753 477346.3851
 -9787.554836 9787.553106 477263.3224
 -15526.69885 9208.701736 477122.6181
 -19970.75025 8213.439249 476975.4499
 -23224.82656 5835.396135 476863.1113
 23405.4451 2261.531887 476884.6212
 20608.42824 2799.278658 477010.8259
 15970.36207 3140.074557 477186.5031
 10057.77912 3337.821399 477346.3851
 3428.928967 3428.927292 477439.3744
 -3428.928934 3428.927147 477439.3744
 -10057.77912 3337.821526 477346.3851
 -15970.36202 3140.07446 477186.5031
 -20608.42823 2799.278716 477010.8259
 -23405.44507 2261.531868 476884.6212
 23405.44509 -2261.535199 476884.6212
 20608.4283 -2799.281998 477010.8259
 15970.36198 -3140.07791 477186.5031
 10057.77923 -3337.824791 477346.385
 3428.928863 -3428.930678 477439.3743
 -3428.928846 -3428.930548 477439.3743
 -10057.77919 -3337.824905 477346.385
 -15970.36198 -3140.077823 477186.5031
 -20608.42826 -2799.282051 477010.8259
 -23405.44507 -2261.535183 476884.6212
 23224.8266 -5835.399425 476863.1112
 19970.75025 -8213.442616 476975.4499
 15526.69893 -9208.705017 477122.6181
 9787.554788 -9787.556577 477263.3223
 3337.823249 -10057.7808 477346.385
 -3337.823217 -10057.7809 477346.385
 -9787.554781 -9787.556487 477263.3223
 -15526.69889 -9208.705085 477122.6181
 -19970.75024 -8213.442578 476975.4499
 -23224.82658 -5835.399435 476863.1112
 0 0 0
 18044.29462 -13938.5777 476919.2707
 14624.96897 -14624.97068 477015.8192
 9208.703454 -15526.70051 477122.618
 3140.076126 -15970.36374 477186.5031
 -3140.076105 -15970.36367 477186.5031
 -9208.703417 -15526.70057 477122.618
 -14624.96896 -14624.97064 477015.8192
 -18044.29459 -13938.57772 476919.2707
 0 0 -0
 0 0 0
 17205.48836 -17205.48999 476843.5945
 13938.57609 -18044.29623 476919.2707
 8213.440911 -19970.75194 476975.4498
 2799.280421 -20608.4299 477010.8258
 -2799.280393 -20608.42994 477010.8258
 -8213.440892 -19970.75191 476975.4498
 -13938.57606 -18044.29625 476919.2707
 -17205.48834 -17205.48999 476843.5945
 0 0 -0
 0 0 0
 0 0 0
 0 0 0
 5835.39781 -23224.82823 476863.1112
 2261.533533 -23405.44674 476884.6211
 -2261.533508 -23405.44673 476884.6211
 -5835.397785 -23224.82824 476863.1112
 0 0 -0
 0 0 -0
 0 0 -0
 0 0 0
 0 0 0
 0 0 0
 4529.913412 18221.57125 477094.6714
 1757.874548 18362.58381 477107.5316
 -1757.874528 18362.58384 477107.5316
 -4529.913389 18221.57123 477094.6714
 0 0 -0
 0 0 -0
 0 0 -0
 0 0 0
 13499.91516 13499.9136 477082.148
 10951.24563 14163.09952 477128.2303
 6443.921511 15708.27767 477162.024
 2196.763998 16234.98056 477182.8485
 -2196.763972 16234.98048 477182.8485
 -6443.921497 15708.27774 477162.024
 -10951.2456 14163.09949 477128.2303
 -13499.91515 13499.91361 477082.148
 0 0 -0
 0 0 0
 14163.10108 10951.24407 477128.2303
 11521.34332 11521.34169 477185.9057
 7276.867649 12279.25471 477250.6033
 2486.039608 12662.1973 477289.5973
 -2486.039592 12662.19743 477289.5973
 -7276.867611 12279.2546 477250.6034
 -11521.34332 11521.34176 477185.9057
 -14163.10105 10951.24404 477128.2303
 0 0 -0
 18221.57283 4529.911852 477094.6714
 15708.27929 6443.919882 477162.024
 12279.25626 7276.866119 477250.6033
 7778.535401 7778.533723 477337.2603
 2660.001409 8018.687165 477389.2503
 -2660.001378 8018.68701 477389.2503
 -7778.535401 7778.533857 477337.2603
 -12279.25621 7276.866021 477250.6033
 -15708.27929 6443.919935 477162.024
 -18221.5728 4529.911839 477094.6714
 18362.5854 1757.872947 477107.5315
 16234.98213 2196.762459 477182.8485
 12662.19894 2486.037925 477289.5972
 8018.688725 2659.999876 477389.2503
 2742.101827 2742.100147 477448.2517
 -2742.101815 2742.100305 477448.2517
 -8018.688676 2659.999737 477389.2503
 -12662.19895 2486.03803 477289.5972
 -16234.98209 2196.762396 477182.8485
 -18362.58539 1757.872966 477107.5315
 18362.58543 -1757.8761 477107.5315
 16234.98209 -2196.765623 477182.8485
 12662.19902 -2486.041122 477289.5972
 8018.688648 -2660.003073 477389.2503
 2742.101897 -2742.103372 477448.2517
 -2742.101863 -2742.103513 477448.2517
 -8018.688653 -2660.002949 477389.2503
 -12662.19896 -2486.041217 477289.5972
 -16234.98209 -2196.765566 477182.8485
 -18362.5854 -1757.876118 477107.5315
 18221.57284 -4529.914989 477094.6714
 15708.27934 -6443.923056 477162.024
 12279.25621 -7276.869283 477250.6033
 7778.535475 -7778.536944 477337.2603
 2660.001349 -8018.690348 477389.2503
 -2660.001335 -8018.690236 477389.2503
 -7778.535429 -7778.537042 477337.2603
 -12279.25621 -7276.86921 477250.6033
 -15708.2793 -6443.923098 477162.024
 -18221.57282 -4529.914979 477094.6714
 0 0 0
 14163.10109 -10951.24723 477128.2302
 11521.34338 -11521.34488 477185.9057
 7276.867609 -12279.25787 477250.6033
 2486.039658 -12662.20052 477289.5972
 -2486.039629 -12662.20059 477289.5972
 -7276.867602 -12279.2578 477250.6033
 -11521.34334 -11521.34493 477185.9057
 -14163.10107 -10951.24721 477128.2302
 0 0 -0
 0 0 0
 13499.91522 -13499.91675 477082.1479
 10951.24564 -14163.10267 477128.2302
 6443.921551 -15708.28086 477162.0239
 2196.763974 -16234.98371 477182.8484
 -2196.763955 -16234.98367 477182.8484
 -6443.921521 -15708.2809 477162.0239
 -10951.24563 -14163.10265 477128.2302
 -13499.9152 -13499.91676 477082.1479
 0 0 -0
 0 0 0
 0 0 0
 0 0 0
 4529.913424 -18221.57441 477094.6713
 1757.874565 -18362.58698 477107.5315
 -1757.874541 -18362.58699 477107.5315
 -4529.913403 -18221.5744 477094.6713
 0 0 -0
 0 0 -0
 0 0 -0
 0 0 0
 0 0 0
 0 0 0
 3439.150514 13924.89127 477248.5107
 1334.867717 14029.44014 477255.9735
 -1334.867696 14029.44012 477255.9735
 -3439.150496 13924.89128 477248.5107
 0 0 -0
 0 0 -0
 0 0 -0
 0 0 0
 10318.59254 10318.59107 477240.9503
 8369.384746 10819.90234 477268.0111
 4917.534601 12008.11092 477287.6433
 1675.83099 12416.83241 477299.5759
 -1675.830974 12416.83248 477299.5759
 -4917.534572 12008.11087 477287.6433
 -8369.384735 10819.90236 477268.0111
 -10318.59252 10318.59106 477240.9503
 0 0 -0
 0 0 0
 10819.90385 8369.383227 477268.0111
 8810.96631 8810.964864 477301.3776
 5570.570617 9405.361932 477338.8516
 1904.48431 9709.706605 477361.4625
 -1904.484282 9709.706496 477361.4625
 -5570.570617 9405.362023 477338.8516
 -8810.96627 8810.964803 477301.3776
 -10819.90384 8369.383251 477268.0111
 0 0 -0
 13924.89278 3439.149013 477248.5106
 12008.11239 4917.533155 477287.6433
 9405.363507 5570.569025 477338.8515
 5971.202971 5971.201544 477389.3178
 2044.772851 6165.84285 477419.8075
 -2044.772842 6165.842982 477419.8075
 -5971.202923 5971.20143 477389.3178
 -9405.36352 5570.569107 477338.8515
 -12008.11235 4917.533108 477287.6433
 -13924.89276 3439.149024 477248.5106
 14029.44164 1334.866241 477255.9735
 12416.83396 1675.829415 477299.5759
 9709.708068 1904.482895 477361.4624
 6165.844448 2044.771221 477419.8075
 2112.003691 2112.002253 477454.6577
 -2112.003658 2112.002118 477454.6577
 -6165.844461 2044.771339 477419.8075
 -9709.708008 1904.482806 477361.4624
 -12416.83397 1675.829467 477299.5759
 -14029.44161 1334.866224 477255.9735
 14029.44164 -1334.869225 477255.9734
 12416.83398 -1675.832416 477299.5759
 9709.708049 -1904.485904 477361.4624
 6165.844463 -2044.774255 477419.8075
 2112.0037 -2112.005281 477454.6577
 -2112.003693 -2112.00516 477454.6577
 -6165.84441 -2044.774362 477419.8075
 -9709.708069 -1904.485824 477361.4624
 -12416.83393 -1675.832465 477299.5759
 -14029.44163 -1334.869211 477255.9734
 13924.8928 -3439.151989 477248.5106
 12008.11239 -4917.536143 477287.6432
 9405.363537 -5570.572048 477338.8515
 5971.202966 -5971.20455 477389.3178
 2044.772846 -6165.845897 477419.8074
 -2044.772815 -6165.845993 477419.8074
 -5971.202974 -5971.204466 477389.3178
 -9405.363484 -5570.572111 477338.8515
 -12008.1124 -4917.536108 477287.6432
 -13924.89278 -3439.151998 477248.5106
 0 0 0
 10819.90389 -8369.386235 477268.011
 8810.966321 -8810.967855 477301.3776
 5570.570636 -9405.364965 477338.8515
 1904.484318 -9709.709603 477361.4624
 -1904.484306 -9709.709536 477361.4624
 -5570.570596 -9405.365022 477338.8515
 -8810.966322 -8810.967816 477301.3776
 -10819.90386 -8369.386252 477268.011
 0 0 -0
 0 0 0
 10318.59259 -10318.59406 477240.9502
 8369.384783 -10819.90534 477268.011
 4917.534613 -12008.11391 477287.6432
 1675.830992 -12416.83544 477299.5758
 -1675.830967 -12416.83548 477299.5758
 -4917.534603 -12008.11388 477287.6432
 -8369.384756 -10819.90535 477268.011
 -10318.59258 -10318.59405 477240.9502
 0 0 -0
 0 0 0
 0 0 0
 0 0 0
 3439.150534 -13924.89428 477248.5106
 1334.867726 -14029.44314 477255.9734
 -1334.867707 -14029.44313 477255.9734
 -3439.150512 -13924.89429 477248.5106
 0 0 -0
 0 0 -0
 0 0 -0
 0 0 0
 0 0 0
 0 0 0
 2558.847044 10404.93025 477343.7556
 993.1190767 10479.83841 477347.9423
 -993.1190615 10479.83842 477347.9423
 -2558.847025 10404.93024 477343.7556
 0 0 -0
 0 0 -0
 0 0 -0
 0 0 0
 7711.890259 7711.888853 477339.4231
 6250.820319 8079.392296 477354.7129
 3667.637629 8966.846387 477365.704
 1249.198113 9271.962039 477372.3301
 -1249.198092 9271.962 477372.3301
 -3667.637623 8966.846417 477365.704
 -6250.820294 8079.392281 477354.7129
 -7711.890246 7711.888858 477339.4231
 0 0 -0
 0 0 0
 8079.393682 6250.818933 477354.7129
 6578.416232 6578.414755 477373.3551
 4158.602829 7024.323503 477394.2147
 1421.810646 7253.883774 477406.7772
 -1421.810639 7253.883835 477406.7772
 -4158.60279 7024.323451 477394.2147
 -6578.416239 6578.414789 477373.3551
 -8079.393653 6250.818919 477354.7129
 0 0 -0
 10404.93167 2558.845653 477343.7556
 8966.847848 3667.636152 477365.704
 7024.32486 4158.601496 477394.2147
 4461.969331 4461.967796 477422.3005
 1528.620755 4610.36691 477439.2937
 -1528.620725 4610.366835 477439.2937
 -4461.969346 4461.967859 477422.3005
 -7024.324806 4158.601449 477394.2147
 -8966.847858 3667.636177 477365.704
 -10404.93164 2558.845647 477343.7556
 10479.83985 993.1176334 477347.9422
 9271.963436 1249.196768 477372.3301
 7253.885269 1421.8091 477406.7772
 4610.36826 1528.619444 477439.2937
 1580.197094 1580.195544 477458.7702
 -1580.197092 1580.19562 477458.7702
 -4610.368205 1528.619378 477439.2937
 -7253.885298 1421.809149 477406.7772
 -9271.963384 1249.196738 477372.3301
 -10479.83984 993.1176419 477347.9422
 10479.83985 -993.1204593 477347.9422
 9271.963459 -1249.199603 477372.33
 7253.885234 -1421.81195 477406.7772
 4610.368333 -1528.622301 477439.2936
 1580.196989 -1580.198413 477458.7702
 -1580.196957 -1580.198482 477458.7702
 -4610.368354 -1528.622241 477439.2936
 -7253.885171 -1421.811996 477406.7772
 -9271.963477 -1249.199577 477372.33
 -10479.83982 -993.1204681 477347.9422
 10404.93169 -2558.848469 477343.7556
 8966.84785 -3667.63899 477365.704
 7024.324907 -4158.604339 477394.2146
 4461.969276 -4461.970659 477422.3004
 1528.620851 -4610.369763 477439.2936
 -1528.620846 -4610.369707 477439.2936
 -4461.969227 -4461.970707 477422.3004
 -7024.324928 -4158.604304 477394.2146
 -8966.847805 -3667.63901 477365.704
 -10404.93168 -2558.848464 477343.7556
 0 0 0
 8079.393724 -6250.821777 477354.7129
 6578.416232 -6578.417604 477373.3551
 4158.602888 -7024.326348 477394.2146
 1421.810579 -7253.88664 477406.7772
 -1421.810553 -7253.88668 477406.7772
 -4158.602893 -7024.326315 477394.2146
 -6578.416191 -6578.417627 477373.3551
 -8079.39372 -6250.821768 477354.7129
 0 0 -0
 0 0 0
 7711.890315 -7711.891691 477339.423
 6250.820364 -8079.395129 477354.7129
 3667.637618 -8966.849241 477365.704
 1249.198162 -9271.964884 477372.33
 -1249.198149 -9271.964861 477372.33
 -3667.637589 -8966.84926 477365.704
 -6250.820356 -8079.39512 477354.7129
 -7711.890294 -7711.891694 477339.423
 0 0 -0
 0 0 0
 0 0 0
 0 0 0
 2558.847072 -10404.93311 477343.7556
 993.1190714 -10479.84126 477347.9422
 -993.1190527 -10479.84127 477347.9422
 -2558.847057 -10404.9331 477343.7556
 0 0 -0
 0 0 -0
 0 0 -0
 0 0 0
 0 0 0
 0 0 0
 1860.291495 7586.128408 477400.1061
 721.8966624 7638.373662 477402.3517
 -721.8966474 7638.373664 477402.3517
 -1860.291484 7586.128407 477400.1061
 0 0 -0
 0 0 -0
 0 0 -0
 0 0 0
 5623.80466 5623.803344 477397.7555
 4554.574928 5886.141631 477405.9912
 2669.086063 6531.191599 477411.8671
 908.5686304 6751.964167 477415.3923
 -908.5686219 6751.964161 477415.3923
 -2669.086037 6531.191603 477411.8671
 -4554.574923 5886.141628 477405.9912
 -5623.804642 5623.803344 477397.7555
 0 0 -0
 0 0 0
 5886.142987 4554.573561 477405.9912
 4789.718071 4789.716782 477415.9492
 3026.015046 5112.849783 477427.0345
 1034.280183 5279.406652 477433.6911
 -1034.28016 5279.406661 477433.6911
 -3026.015056 5112.849775 477427.0345
 -4789.718032 4789.716788 477415.9492
 -5886.142986 4554.573558 477405.9912
 0 0 -0
 7586.12977 1860.290147 477400.106
 6531.192919 2669.084779 477411.8671
 5112.851201 3026.013604 477427.0345
 3246.747619 3246.746361 477441.9217
 1112.203876 3354.938342 477450.9176
 -1112.203876 3354.938331 477450.9176
 -3246.747569 3246.746371 477441.9217
 -5112.851228 3026.013595 477427.0345
 -6531.192876 2669.084783 477411.8671
 -7586.129764 1860.290145 477400.106
 7638.375012 721.8953462 477402.3517
 6751.965554 908.5672001 477415.3923
 5279.407959 1034.278947 477433.6911
 3354.939786 1112.202388 477450.9176
 1149.925247 1149.923992 477461.2305
 -1149.925216 1149.924003 477461.2305
 -3354.939814 1112.202377 477450.9176
 -5279.407895 1034.278956 477433.6911
 -6751.965578 908.5671936 477415.3923
 -7638.374985 721.8953477 477402.3517
 7638.375035 -721.8980278 477402.3517
 6751.96551 -908.5698902 477415.3923
 5279.408056 -1034.281649 477433.6911
 3354.939645 -1112.205096 477450.9176
 1149.925439 -1149.926707 477461.2305
 -1149.925441 -1149.926716 477461.2305
 -3354.939589 -1112.205087 477450.9176
 -5279.408092 -1034.281657 477433.6911
 -6751.965457 -908.5698851 477415.3923
 -7638.375034 -721.8980301 477402.3517
 7586.129783 -1860.292819 477400.106
 6531.192975 -2669.087471 477411.867
 5112.851134 -3026.016302 477427.0345
 3246.747753 -3246.749073 477441.9216
 1112.203709 -3354.941052 477450.9176
 -1112.20368 -3354.941046 477450.9176
 -3246.747774 -3246.749079 477441.9216
 -5112.851078 -3026.016297 477427.0345
 -6531.192991 -2669.087475 477411.867
 -7586.12976 -1860.292819 477400.106
 0 0 0
 5886.143001 -4554.576262 477405.9912
 4789.718152 -4789.719487 477415.9491
 3026.014964 -5112.852485 477427.0345
 1034.280318 -5279.409368 477433.6911
 -1034.280313 -5279.40937 477433.6911
 -3026.014925 -5112.852482 477427.0345
 -4789.718164 -4789.719489 477415.9491
 -5886.142973 -4554.57626 477405.9912
 0 0 -0
 0 0 0
 5623.804727 -5623.80604 477397.7555
 4554.574939 -5886.144322 477405.9912
 2669.086134 -6531.19431 477411.867
 908.5685583 -6751.966874 477415.3922
 -908.5685384 -6751.966873 477415.3922
 -2669.086132 -6531.194311 477411.867
 -4554.574915 -5886.144322 477405.9912
 -5623.804717 -5623.806041 477397.7555
 0 0 -0
 0 0 0
 0 0 0
 0 0 0
 1860.291503 -7586.131126 477400.106
 721.8966957 -7638.376375 477402.3517
 -721.8966827 -7638.376375 477402.3517
 -1860.291486 -7586.131126 477400.106
 0 0 -0
 0 0 -0
 0 0 -0
 0 0 0
 0 0 0
 0 0 0
 1306.621119 5338.553083 477432.3658
 506.9624533 5373.849537 477433.4886
 -506.9624441 5373.849518 477433.4886
 -1306.621106 5338.553094 477432.3658
 0 0 -0
 0 0 -0
 0 0 -0
 0 0 0
 3958.321533 3958.320264 477431.1832
 3203.247234 4139.344125 477435.3112
 1875.277632 4591.587418 477438.2389
 638.0234993 4745.502786 477439.9904
 -638.023483 4745.502843 477439.9904
 -1875.277634 4591.587373 477438.2389
 -3203.247213 4139.344147 477435.3112
 -3958.321526 3958.320255 477431.1832
 0 0 -0
 0 0 0
 4139.345384 3203.245979 477435.3111
 3365.871503 3365.87018 477440.2718
 2124.888403 3591.101674 477445.7667
 725.9872962 3707.107251 477449.0565
 -725.9872958 3707.107161 477449.0565
 -2124.888367 3591.10175 477445.7667
 -3365.87152 3365.870128 477440.2718
 -4139.345359 3203.246 477435.3111
 0 0 -0
 5338.554373 1306.619863 477432.3658
 4591.588725 1875.276301 477438.2389
 3591.102921 2124.887193 477445.7667
 2278.932981 2278.931614 477453.1225
 780.4260769 2354.399387 477457.5573
 -780.426051 2354.399498 477457.5573
 -2278.933008 2278.931517 477453.1225
 -3591.102866 2124.887264 477445.7667
 -4591.588746 1875.27626 477438.2389
 -5338.554354 1306.619873 477432.3658
 5373.850835 506.9611484 477433.4886
 4745.504073 638.0222869 477439.9904
 3707.108574 725.9859027 477449.0565
 2354.400632 780.4248872 477457.5573
 806.7734117 806.7720343 477462.6368
 -806.773418 806.771919 477462.6368
 -2354.400576 780.4249892 477457.5573
 -3707.108616 725.9858241 477449.0565
 -4745.504021 638.022334 477439.9904
 -5373.850839 506.9611328 477433.4886
 5373.850825 -506.9637059 477433.4886
 4745.504142 -638.0248537 477439.9904
 3707.108459 -725.9884746 477449.0565
 2354.400814 -780.4274724 477457.5573
 806.7731775 -806.774614 477462.6368
 -806.7731489 -806.7745097 477462.6368
 -2354.400848 -780.4275656 477457.5573
 -3707.108395 -725.988403 477449.0565
 -4745.504172 -638.0248982 477439.9904
 -5373.850799 -506.9636922 477433.4886
 5338.554406 -1306.622414 477432.3658
 4591.588691 -1875.278865 477438.2389
 3591.103037 -2124.889775 477445.7667
 2278.932831 -2278.934185 477453.1225
 780.4262885 -2354.401986 477457.5573
 -780.4262918 -2354.402068 477457.5573
 -2278.932782 -2278.934112 477453.1225
 -3591.103069 -2124.889831 477445.7667
 -4591.588648 -1875.278833 477438.2389
 -5338.554403 -1306.622423 477432.3658
 0 0 0
 4139.345446 -3203.248561 477435.3111
 3365.871458 -3365.872748 477440.2718
 2124.888536 -3591.104271 477445.7667
 725.9871412 -3707.10982 477449.0565
 -725.9871192 -3707.109764 477449.0565
 -2124.888551 -3591.10432 477445.7667
 -3365.871418 -3365.872714 477440.2718
 -4139.345449 -3203.248576 477435.3111
 0 0 -0
 0 0 0
 3958.321582 -3958.322836 477431.1832
 3203.247301 -4139.346701 477435.3111
 1875.277582 -4591.589993 477438.2389
 638.0236022 -4745.505387 477439.9904
 -638.0235964 -4745.505418 477439.9904
 -1875.277557 -4591.589968 477438.2389
 -3203.247299 -4139.346714 477435.3111
 -3958.321566 -3958.322832 477431.1832
 0 0 -0
 0 0 0
 0 0 0
 0 0 0
 1306.621158 -5338.555684 477432.3657
 506.9624312 -5373.852123 477433.4886
 -506.9624181 -5373.852114 477433.4886
 -1306.621149 -5338.55569 477432.3657
 0 0 -0
 0 0 -0
 0 0 -0
 0 0 0
 0 0 0
 0 0 0
 860.6867315 3520.955252 477450.2418
 333.89608 3543.469188 477450.7342
 -333.8960708 3543.469222 477450.7342
 -860.6867266 3520.955231 477450.2418
 0 0 -0
 0 0 -0
 0 0 -0
 0 0 0
 2611.02178 2611.020571 477449.7214
 2111.605304 2728.507376 477451.5344
 1235.252373 3025.765737 477452.8146
 420.0954371 3126.413914 477453.5793
 -420.0954352 3126.413809 477453.5793
 -1235.252352 3025.76582 477452.8146
 -2111.605307 2728.507335 477451.5344
 -2611.021768 2611.020584 477449.7214
 0 0 -0
 0 0 0
 2728.508602 2111.604066 477451.5344
 2217.225581 2217.224371 477453.7036
 1398.801114 2364.383102 477456.0968
 477.7322739 2440.071177 477457.526
 -477.7322553 2440.071344 477457.526
 -1398.801133 2364.38296 477456.0968
 -2217.225545 2217.224466 477453.7036
 -2728.508609 2111.604027 477451.5344
 0 0 -0
 3520.956493 860.6855034 477450.2418
 3025.766978 1235.25118 477452.8146
 2364.384347 1398.799837 477456.0968
 1499.441107 1499.439896 477459.2911
 513.3074398 1548.674909 477461.2125
 -513.3074472 1548.674701 477461.2125
 -1499.44106 1499.440077 477459.2911
 -2364.384384 1398.799702 477456.0968
 -3025.766938 1235.251254 477452.8146
 -3520.956493 860.6854849 477450.2418
 3543.470441 333.8948699 477450.7342
 3126.41514 420.0941517 477453.5793
 2440.07244 477.7311032 477457.526
 1548.676148 513.3061431 477461.2125
 530.5022614 530.5010366 477463.4106
 -530.5022352 530.5012556 477463.4106
 -1548.676186 513.3059491 477461.2125
 -2440.072377 477.7312504 477457.526
 -3126.415174 420.0940622 477453.5793
 -3543.470418 333.8948975 477450.7342
 3543.470464 -333.8973279 477450.7342
 3126.415093 -420.0966151 477453.5793
 2440.072547 -477.733579 477457.526
 1548.67599 -513.3086158 477461.2125
 530.5024775 -530.5035262 477463.4106
 -530.5024873 -530.5037284 477463.4106
 -1548.675935 -513.3084367 477461.2125
 -2440.072595 -477.7337168 477457.526
 -3126.415042 -420.0965319 477453.5793
 -3543.470471 -333.897355 477450.7342
 3520.956504 -860.6879532 477450.2418
 3025.767039 -1235.25365 477452.8146
 2364.384271 -1398.802302 477456.0968
 1499.441258 -1499.442391 477459.2911
 513.3072511 -1548.677371 477461.2125
 -513.3072274 -1548.677207 477461.2125
 -1499.441288 -1499.442536 477459.2911
 -2364.384218 -1398.802193 477456.0968
 -3025.767063 -1235.253712 477452.8146
 -3520.956487 -860.6879383 477450.2418
 0 0 0
 2728.508615 -2111.606542 477451.5344
 2217.22567 -2217.226858 477453.7036
 1398.80102 -2364.385565 477456.0968
 477.7324257 -2440.073687 477457.526
 -477.7324281 -2440.073802 477457.526
 -1398.800985 -2364.385466 477456.0968
 -2217.22569 -2217.226927 477453.7036
 -2728.508592 -2111.606513 477451.5344
 0 0 -0
 0 0 0
 2611.021847 -2611.023048 477449.7214
 2111.605313 -2728.509842 477451.5343
 1235.252454 -3025.768237 477452.8146
 420.0953541 -3126.416382 477453.5792
 -420.0953398 -3126.416317 477453.5792
 -1235.252458 -3025.76829 477452.8146
 -2111.605294 -2728.509816 477451.5344
 -2611.021843 -2611.023058 477449.7214
 0 0 -0
 0 0 0
 0 0 0
 0 0 0
 860.6867375 -3520.957747 477450.2418
 333.8961169 -3543.471687 477450.7342
 -333.89611 -3543.471707 477450.7342
 -860.6867262 -3520.957735 477450.2418
 0 0 -0
 0 0 -0
 0 0 -0
 0 0 0
 0 0 0
 0 0 0
 488.1790319 1998.557047 477459.5677
 189.3653217 2011.039678 477459.7273
 -189.3653187 2011.039632 477459.7273
 -488.1790245 1998.557075 477459.5677
 0 0 -0
 0 0 -0
 0 0 -0
 0 0 0
 1482.212849 1482.211677 477459.3987
 1198.171183 1548.150987 477459.9867
 700.5521812 1716.458155 477460.4008
 238.1828214 1773.227977 477460.6478
 -238.1828108 1773.228119 477460.6478
 -700.5521901 1716.458042 477460.4008
 -1198.171168 1548.151042 477459.9867
 -1482.21285 1482.211657 477459.3987
 0 0 -0
 0 0 0
 1548.152181 1198.169996 477459.9867