# OOMMF OVF 2.0
#
# Segment count: 1
#
# Begin: Segment
# Begin: Header
#
# Title: Oxs_MinDriver::Magnetization
# Desc: Oxs vector field output
# Desc:  MIF source file: F:/Bogdan/UNIC/2022/Master_degree/Samples/Cylinder11_7.mif
# Desc:  Iteration: 897, State id: 2020
# Desc:  Stage: 1, Stage iteration: 788
# Desc:  Stage simulation time: 0 s
# Desc:  Total simulation time: -2 s
# meshunit: m
# meshtype: rectangular
# xbase: -2.5000000000000001e-09
# ybase: -2.5000000000000001e-09
# zbase: -6.4999999999999995e-09
# xnodes: 6
# ynodes: 6
# znodes: 14
# xstepsize: 1.0000000000000001e-09
# ystepsize: 1.0000000000000001e-09
# zstepsize: 1.0000000000000001e-09
# xmin: -3e-09
# ymin: -3e-09
# zmin: -6.9999999999999998e-09
# xmax: 3.0000000000000008e-09
# ymax: 3.0000000000000008e-09
# zmax: 7.0000000000000015e-09
# valuedim: 3
# valuelabels: Magnetization_x Magnetization_y Magnetization_z
# valueunits: A/m A/m A/m
#
# End: Header
#
# Begin: Data Text
 0 0 0
 2035.87326 3846.39075 477444.1662
 771.171884 3932.538541 477447.1821
 -771.1819248 3932.538378 477447.1821
 -2035.883256 3846.390022 477444.1661
 0 0 -0
 3846.400324 2035.86457 477444.1661
 2514.841585 2514.832317 477450.754
 878.7221598 2653.867079 477455.8159
 -878.731599 2653.866873 477455.8159
 -2514.85087 2514.831891 477450.7539
 -3846.408931 2035.863925 477444.166
 3932.548527 771.162754 477447.1821
 2653.87689 878.7127479 477455.8159
 926.407091 926.3970385 477462.2025
 -926.4156245 926.3969414 477462.2025
 -2653.885428 878.712539 477455.8158
 -3932.55678 771.1625379 477447.182
 3932.548888 -771.1908914 477447.182
 2653.877322 -878.7410317 477455.8158
 926.4074773 -926.425616 477462.2025
 -926.4152136 -926.4258059 477462.2025
 -2653.885167 -878.7412809 477455.8158
 -3932.556543 -771.19124 477447.182
 3846.401213 -2035.892221 477444.166
 2514.84287 -2514.860323 477450.7538
 878.7234323 -2653.89545 477455.8157
 -878.7306891 -2653.895592 477455.8157
 -2514.850045 -2514.860911 477450.7538
 -3846.408297 -2035.892877 477444.1659
 0 0 0
 2035.875363 -3846.418812 477444.1659
 771.1736314 -3932.566968 477447.1819
 -771.180481 -3932.567147 477447.1819
 -2035.882131 -3846.419211 477444.1659
 0 0 -0
 0 0 0
 1627.52861 3082.083917 477451.2784
 633.6177364 3154.160466 477453.1612
 -633.6270023 3154.160317 477453.1611
 -1627.537879 3082.083453 477451.2783
 0 0 -0
 3082.093602 1627.519287 477451.2783
 2058.323722 2058.313939 477455.1266
 731.9719079 2196.33677 477458.3873
 -731.9808502 2196.33656 477458.3873
 -2058.332251 2058.313425 477455.1266
 -3082.101727 1627.51858 477451.2783
 3154.170573 633.6084485 477453.1611
 2196.346811 731.962254 477458.3873
 779.0399469 779.0295141 477462.7289
 -779.048099 779.0294792 477462.7289
 -2196.35505 731.9618551 477458.3872
 -3154.178431 633.6079776 477453.161
 3154.170898 -633.6363952 477453.1611
 2196.347233 -731.9905787 477458.3872
 779.0402126 -779.058411 477462.7289
 -779.0477843 -779.0587457 477462.7289
 -2196.354945 -731.9909758 477458.3872
 -3154.178331 -633.6369173 477453.161
 3082.094585 -1627.547109 477451.2782
 2058.324683 -2058.342164 477455.1265
 731.9727701 -2196.365302 477458.3872
 -731.9801063 -2196.365598 477458.3872
 -2058.331744 -2058.342607 477455.1265
 -3082.101575 -1627.547775 477451.2782
 0 0 0
 1627.530028 -3082.112137 477451.2782
 633.619045 -3154.188961 477453.161
 -633.6259477 -3154.189021 477453.161
 -1627.536755 -3082.112385 477451.2781
 0 0 -0
 0 0 0
 1192.8238 2255.960477 477457.1804
 469.3181453 2307.986435 477458.1911
 -469.3259597 2307.986143 477458.1911
 -1192.831441 2255.959755 477457.1804
 0 0 -0
 2255.9705 1192.813715 477457.1804
 1520.170585 1520.160336 477459.16
 545.9520635 1630.422972 477460.9041
 -545.9594036 1630.42278 477460.9041
 -1520.177782 1520.159592 477459.16
 -2255.977655 1192.812745 477457.1803
 2307.996897 469.3082763 477458.191
 1630.43361 545.941704 477460.9041
 584.5349215 584.5242509 477463.2844
 -584.5420974 584.5239637 477463.2844
 -1630.440709 545.9412355 477460.9041
 -2308.004057 469.3074807 477458.191
 2307.997201 -469.335864 477458.191
 1630.433938 -545.9696629 477460.9041
 584.5350459 -584.5527822 477463.2844
 -584.5420601 -584.5530427 477463.2844
 -1630.440662 -545.9703223 477460.904
 -2308.004228 -469.3366299 477458.191
 2255.971245 -1192.841381 477457.1803
 1520.171179 -1520.188319 477459.1599
 545.9524898 -1630.451447 477460.904
 -545.959016 -1630.451856 477460.904
 -1520.177552 -1520.188956 477459.1599
 -2255.977849 -1192.842227 477457.1803
 0 0 0
 1192.824531 -2255.988578 477457.1803
 469.3188168 -2308.015128 477458.1909
 -469.3252977 -2308.015292 477458.1909
 -1192.830764 -2255.98909 477457.1802
 0 0 -0
 0 0 0
 821.7144862 1552.479375 477460.769
 324.4894217 1586.766953 477461.2531
 -324.4956966 1586.766738 477461.2531
 -821.7205225 1552.478474 477460.7689
 0 0 -0
 1552.490335 821.7041638 477460.7689
 1048.964493 1048.953722 477461.6955
 378.1877291 1126.470134 477462.5214
 -378.1934685 1126.469843 477462.5214
 -1048.97035 1048.952633 477461.6955
 -1552.495898 821.7025394 477460.7689
 1586.778275 324.4791117 477461.253
 1126.481464 378.1769141 477462.5214
 405.7496878 405.7382932 477463.6552
 -405.7553362 405.7380058 477463.6552
 -1126.487285 378.1760667 477462.5214
 -1586.784048 324.4775953 477461.253
 1586.778371 -324.5059757 477461.253
 1126.481484 -378.2043166 477462.5214
 405.7496415 -405.7665838 477463.6552
 -405.7552303 -405.7668719 477463.6552
 -1126.487337 -378.2053688 477462.5213
 -1586.784124 -324.5074809 477461.253
 1552.490519 -821.7308505 477460.7689
 1048.964709 -1048.981054 477461.6954
 378.1879364 -1126.498445 477462.5213
 -378.1935605 -1126.498734 477462.5213
 -1048.970414 -1048.982158 477461.6954
 -1552.496011 -821.7324377 477460.7689
 0 0 0
 821.7149407 -1552.507195 477460.7689
 324.4896062 -1586.795366 477461.253
 -324.4955106 -1586.795658 477461.253
 -821.7204709 -1552.507815 477460.7689
 0 0 -0
 0 0 0
 526.1922875 993.7320337 477462.6759
 208.0387737 1014.674791 477462.8765
 -208.043218 1014.674187 477462.8765
 -526.1963584 993.7308013 477462.6759
 0 0 -0
 993.7438839 526.1814207 477462.6759
 671.6806449 671.6692239 477463.0551
 242.4443239 721.1864224 477463.3938
 -242.4485824 721.1859384 477463.3938
 -671.684683 671.667873 477463.0551
 -993.7477393 526.1793246 477462.6759
 1014.686882 208.0278262 477462.8765
 721.1984226 242.4329649 477463.3938
 260.1673447 260.1554273 477463.8582
 -260.1712 260.1549117 477463.8582
 -721.2023817 242.4316656 477463.3938
 -1014.690841 208.0257986 477462.8765
 1014.686695 -208.0541654 477462.8765
 721.1982813 -242.4599408 477463.3938
 260.1672793 -260.1831673 477463.8582
 -260.1713568 -260.1835673 477463.8582
 -721.2024517 -242.4612286 477463.3938
 -1014.690812 -208.0563481 477462.8765
 993.7435335 -526.2076028 477462.6759
 671.6805392 -671.6960148 477463.0551
 242.4440964 -721.2141313 477463.3937
 -242.4488364 -721.2147031 477463.3937
 -671.6848562 -671.6974994 477463.0551
 -993.7477752 -526.2096841 477462.6759
 0 0 0
 526.1923782 -993.7593354 477462.6759
 208.03876 -1014.702539 477462.8765
 -208.0436182 -1014.703131 477462.8765
 -526.196793 -993.760504 477462.6759
 0 0 -0
 0 0 0
 291.0186197 549.5512943 477463.595
 115.0987255 560.719195 477463.6569
 -115.1013636 560.7186302 477463.6569
 -291.0213405 549.5500184 477463.595
 0 0 -0
 549.5641256 291.0069636 477463.595
 371.3516335 371.3392572 477463.7112
 134.064447 398.5346223 477463.8149
 -134.0668062 398.5341043 477463.8149
 -371.3538286 371.3377731 477463.7112
 -549.5660054 291.0046017 477463.595
 560.7320403 115.086896 477463.6569
 398.5474753 134.0519873 477463.8148
 143.818051 143.8051965 477463.9567
 -143.8204203 143.8047806 477463.9567
 -398.5497141 134.0504473 477463.8148
 -560.7343335 115.084492 477463.6569
 560.731843 -115.1132446 477463.6569
 398.5472946 -134.0791224 477463.8148
 143.8178478 -143.8331804 477463.9567
 -143.8206164 -143.8336734 477463.9567
 -398.5499599 -134.0806929 477463.8148
 -560.7344103 -115.115727 477463.6569
 549.5636365 -291.0331659 477463.595
 371.3511949 -371.3662937 477463.7112
 134.0638219 -398.5626816 477463.8148
 -134.0672126 -398.5632612 477463.8148
 -371.3542637 -371.3678343 477463.7112
 -549.5662516 -291.0357534 477463.595
 0 0 0
 291.0181593 -549.5786978 477463.595
 115.0982018 -560.7471938 477463.6568
 -115.1020094 -560.7477537 477463.6568
 -291.0219624 -549.5799583 477463.595
 0 0 -0
 0 0 0
 92.89172797 175.4069145 477463.9587
 36.74196334 178.9027968 477463.9651
 -36.74204329 178.9023439 477463.9651
 -92.89192322 175.4056748 477463.9587
 0 0 -0
 175.4204431 92.87853577 477463.9587
 118.5054311 118.492041 477463.9706
 42.78087146 127.1321659 477463.9812
 -42.78106697 127.1317178 477463.9812
 -118.5057193 118.4904303 477463.9706
 -175.4205861 92.87584341 477463.9587
 178.9165461 36.72869597 477463.9651
 127.1461154 42.7673507 477463.9812
 45.88109923 45.8669182 477463.9956
 -45.8815752 45.86676477 477463.9956
 -127.1467068 42.76583281 477463.9812
 -178.9172876 36.72616981 477463.9651
 178.9164163 -36.75516675 477463.9651
 127.1458152 -42.79465853 477463.9812
 45.88079453 -45.89560317 477463.9956
 -45.88185986 -45.89605119 477463.9956
 -127.1468236 -42.79628997 477463.9812
 -178.9176098 -36.75767604 477463.9651
 175.4200652 -92.90482453 477463.9587
 118.5047324 -118.5191548 477463.9706
 42.78020478 -127.1606646 477463.9812
 -42.78172905 -127.1610034 477463.9812
 -118.506308 -118.5207584 477463.9706
 -175.4212165 -92.90762879 477463.9587
 0 0 0
 92.8906445 -175.4342745 477463.9587
 36.74094646 -178.9312708 477463.9651
 -36.74275479 -178.9317797 477463.9651
 -92.89249528 -175.4356403 477463.9587
 0 0 -0
 0 0 0
 -92.89065225 -175.4343246 477463.9587
 -36.74094823 -178.9313018 477463.9651
 36.74276091 -178.9317827 477463.9651
 92.89250608 -175.4356225 477463.9587
 0 0 -0
 -175.4200813 -92.90485625 477463.9587
 -118.5047432 -118.5191896 477463.9706
 -42.78020704 -127.160687 477463.9812
 42.78173492 -127.161006 477463.9812
 118.5063218 -118.5207461 477463.9706
 175.4212357 -92.90761446 477463.9587
 -178.9164339 -36.75518097 477463.9651
 -127.1458272 -42.79467234 477463.9812
 -45.8807992 -45.8956117 477463.9956
 45.88186566 -45.89605191 477463.9956
 127.1468368 -42.79628448 477463.9812
 178.9176288 -36.75766883 477463.9651
 -178.9165651 36.72870599 477463.9651
 -127.1461297 42.76736149 477463.9812
 -45.88110448 45.86692564 477463.9956
 45.88157832 45.86676656 477463.9956
 127.1467197 42.76583033 477463.9812
 178.9173057 36.72616679 477463.9651
 -175.420463 92.8785634 477463.9587
 -118.5054446 118.492073 477463.9706
 -42.78087821 127.1321873 477463.9812
 42.7810697 127.1317214 477463.9812
 118.50573 118.4904208 477463.9706
 175.4206035 92.87583323 477463.9587
 0 0 0
 -92.89173889 175.4069625 477463.9587
 -36.74196898 178.902827 477463.9651
 36.74204471 178.9023478 477463.9651
 92.8919314 175.4056593 477463.9587
 0 0 -0
 0 0 0
 -291.0181626 -549.5787302 477463.595
 -115.098199 -560.7472157 477463.6568
 115.1020182 -560.7477592 477463.6568
 291.0219747 -549.5799522 477463.595
 0 0 -0
 -549.5636465 -291.033201 477463.595
 -371.3511999 -371.3663225 477463.7112
 -134.0638201 -398.5626992 477463.8148
 134.0672217 -398.5632635 477463.8148
 371.3542773 -371.3678235 477463.7112
 549.5662688 -291.0357322 477463.595
 -560.7318557 -115.1132618 477463.6569
 -398.5473032 -134.079136 477463.8148
 -143.817849 -143.8331878 477463.9567
 143.8206221 -143.8336732 477463.9567
 398.5499722 -134.0806858 477463.8148
 560.7344263 -115.1157153 477463.6569
 -560.7320571 115.0869024 477463.6569
 -398.5474879 134.0519933 477463.8148
 -143.8180577 143.8052012 477463.9567
 143.8204219 143.8047832 477463.9567
 398.5497227 134.0504479 477463.8148
 560.7343475 115.0844911 477463.6569
 -549.5641447 291.0069881 477463.595
 -371.3516481 371.3392788 477463.7112
 -134.064456 398.5346373 477463.8149
 134.0668041 398.5341091 477463.8149
 371.3538349 371.3377694 477463.7112
 549.5660178 291.004591 477463.595
 0 0 0
 -291.0186315 549.5513212 477463.595
 -115.0987342 560.7192146 477463.6569
 115.1013608 560.7186378 477463.6569
 291.0213435 549.5500178 477463.595
 0 0 -0
 0 0 0
 -526.1923785 -993.7593482 477462.6759
 -208.0387546 -1014.702548 477462.8765
 208.0436281 -1014.703137 477462.8765
 526.1968042 -993.7605063 477462.6759
 0 0 -0
 -993.743536 -526.2076285 477462.6759
 -671.6805393 -671.6960313 477463.0551
 -242.4440915 -721.2141401 477463.3937
 242.4488454 -721.2147054 477463.3937
 671.6848665 -671.697493 477463.0551
 993.7477859 -526.2096662 477462.6759
 -1014.6867 -208.0541804 477462.8765
 -721.1982848 -242.4599511 477463.3938
 -260.1672783 -260.183172 477463.8582
 260.1713617 -260.1835667 477463.8582
 721.2024596 -242.461222 477463.3938
 1014.690822 -208.0563362 477462.8765
 -1014.686893 208.0278286 477462.8765
 -721.1984311 242.4329663 477463.3938
 -260.1673501 260.1554288 477463.8582
 260.1711992 260.1549142 477463.8582
 721.2023856 242.4316678 477463.3938
 1014.690848 208.0257993 477462.8765
 -993.7438978 526.181434 477462.6759
 -671.6806558 671.669232 477463.0551
 -242.4443329 721.1864281 477463.3938
 242.4485774 721.1859436 477463.3938
 671.6846839 671.6678749 477463.0551
 993.7477455 526.1793191 477462.6759
 0 0 0
 -526.1922957 993.7320401 477462.6759
 -208.0387825 1014.674798 477462.8765
 208.0432116 1014.674196 477462.8765
 526.1963559 993.7308098 477462.6759
 0 0 -0
 0 0 0
 -821.714939 -1552.507196 477460.7689
 -324.4896023 -1586.795367 477461.253
 324.495517 -1586.795658 477461.253
 821.7204772 -1552.507815 477460.7689
 0 0 -0
 -1552.490515 -821.7308528 477460.7689
 -1048.964706 -1048.981055 477461.6954
 -378.1879319 -1126.498446 477462.5213
 378.1935653 -1126.498734 477462.5213
 1048.970418 -1048.982157 477461.6954
 1552.496011 -821.7324356 477460.7689
 -1586.778369 -324.5059793 477461.253
 -1126.481482 -378.2043191 477462.5214
 -405.7496399 -405.7665847 477463.6552
 405.7552328 -405.7668711 477463.6552
 1126.487339 -378.2053663 477462.5213
 1586.784124 -324.5074775 477461.253
 -1586.778277 324.4791064 477461.253
 -1126.481467 378.1769103 477462.5214
 -405.7496895 405.7382918 477463.6552
 405.7553338 405.7380071 477463.6552
 1126.487284 378.1760705 477462.5214
 1586.784048 324.4776006 477461.253
 -1552.49034 821.7041573 477460.7689
 -1048.964496 1048.953718 477461.6955
 -378.1877337 1126.470132 477462.5214
 378.1934638 1126.469845 477462.5214
 1048.970347 1048.952638 477461.6955
 1552.495898 821.702546 477460.7689
 0 0 0
 -821.7144881 1552.479371 477460.769
 -324.4894258 1586.766951 477461.2531
 324.4956904 1586.76674 477461.2531
 821.7205165 1552.478478 477460.7689
 0 0 -0
 0 0 0
 -1192.82453 -2255.988568 477457.1803
 -469.3188156 -2308.01512 477458.1909
 469.3252979 -2308.015286 477458.1909
 1192.830763 -2255.989087 477457.1802
 0 0 -0
 -2255.971235 -1192.84136 477457.1803
 -1520.171173 -1520.188305 477459.1599
 -545.9524882 -1630.451439 477460.904
 545.9590153 -1630.451853 477460.904
 1520.177547 -1520.18896 477459.1599
 2255.977839 -1192.842242 477457.1803
 -2307.997192 -469.3358549 477458.191
 -1630.433932 -545.9696568 477460.9041
 -584.535043 -584.5527791 477463.2844
 584.5420577 -584.553042 477463.2844
 1630.440657 -545.9703251 477460.904
 2308.004219 -469.3366362 477458.191
 -2307.99689 469.3082656 477458.191
 -1630.433605 545.9416967 477460.9041
 -584.5349201 584.5242472 477463.2844
 584.5420958 584.5239633 477463.2844
 1630.440704 545.9412393 477460.9041
 2308.00405 469.3074883 477458.191
 -2255.970495 1192.813691 477457.1804
 -1520.17058 1520.160321 477459.16
 -545.9520613 1630.422964 477460.9041
 545.9594004 1630.422777 477460.9041
 1520.177777 1520.159597 477459.16
 2255.977649 1192.812761 477457.1803
 0 0 0
 -1192.823793 2255.960465 477457.1804
 -469.3181433 2307.986427 477458.1911
 469.3259562 2307.986137 477458.1911
 1192.831434 2255.959753 477457.1804
 0 0 -0
 0 0 0
 -1627.530026 -3082.112108 477451.2782
 -633.6190474 -3154.188941 477453.161
 633.6259419 -3154.189015 477453.161
 1627.536747 -3082.112389 477451.2781
 0 0 -0
 -3082.09457 -1627.547077 477451.2782
 -2058.324676 -2058.342138 477455.1265
 -731.9727699 -2196.365286 477458.3872
 731.9800992 -2196.365595 477458.3872
 2058.331732 -2058.342616 477455.1265
 3082.101556 -1627.547795 477451.2782
 -3154.170883 -633.6363802 477453.1611
 -2196.347223 -731.9905671 477458.3872
 -779.0402106 -779.0584045 477462.7289
 779.0477795 -779.0587455 477462.7289
 2196.354933 -731.9909813 477458.3872
 3154.178315 -633.6369269 477453.161
 -3154.170559 633.6084398 477453.1611
 -2196.3468 731.9622466 477458.3873
 -779.0399411 779.029509 477462.7289
 779.0480965 779.0294772 477462.7289
 2196.355042 731.9618558 477458.3872
 3154.178419 633.6079806 477453.161
 -3082.093589 1627.51926 477451.2783
 -2058.32371 2058.313917 477455.1266
 -731.971901 2196.336755 477458.3873
 731.9808504 2196.336556 477458.3873
 2058.332244 2058.31343 477455.1266
 3082.101717 1627.518593 477451.2783
 0 0 0
 -1627.528597 3082.08389 477451.2784
 -633.6177281 3154.160447 477453.1612
 633.6270021 3154.160309 477453.1611
 1627.537872 3082.083454 477451.2783
 0 0 -0
 0 0 0
 -2035.875361 -3846.418764 477444.1659
 -771.1736357 -3932.566938 477447.1819
 771.1804712 -3932.567143 477447.1819
 2035.882119 -3846.419227 477444.1659
 0 0 -0
 -3846.401195 -2035.892189 477444.166
 -2514.842862 -2514.860288 477450.7538
 -878.7234346 -2653.895428 477455.8157
 878.7306786 -2653.89559 477455.8157
 2514.850028 -2514.860924 477450.7538
 3846.408274 -2035.892892 477444.1659
 -3932.54887 -771.1908748 477447.182
 -2653.877311 -878.7410165 477455.8158
 -926.407475 -926.4256074 477462.2025
 926.415206 -926.4258061 477462.2025
 2653.885151 -878.7412882 477455.8158
 3932.556522 -771.19125 477447.182
 -3932.548509 771.1627488 477447.1821
 -2653.876875 878.7127407 477455.8159
 -926.4070836 926.3970326 477462.2025
 926.4156231 926.3969386 477462.2025
 2653.885418 878.7125381 477455.8158
 3932.556764 771.162536 477447.182
 -3846.400307 2035.864549 477444.1661
 -2514.841569 2514.83229 477450.754
 -878.7221486 2653.86706 477455.8159
 878.731601 2653.866868 477455.8159
 2514.850863 2514.831896 477450.7539
 3846.408918 2035.863928 477444.166
 0 0 0
 -2035.873244 3846.390707 477444.1662
 -771.1718722 3932.538513 477447.1821
 771.1819272 3932.538372 477447.1821
 2035.88325 3846.390031 477444.1661
 0 0 -0
# End: Data Text
# End: Segment
